# vtk DataFile Version 2.0
3D, Created by Gmsh 4.12.2 
ASCII
DATASET UNSTRUCTURED_GRID
POINTS 8 double
0 0 0
1 0 0
1 1 0
0 1 0
0 0 1
1 0 1
1 1 1
0 1 1

CELLS 1 9
8 0 1 2 3 4 5 6 7

CELL_TYPES 1
12

CELL_DATA 1
SCALARS CellEntityIds int 1
LOOKUP_TABLE default
1
