# vtk DataFile Version 2.0
3D, Created by Gmsh 4.12.2 
ASCII
DATASET UNSTRUCTURED_GRID
POINTS 27 double
0 0 0
1 0 0
1 1 0
0 1 0
0 0 1
1 0 1
1 1 1
0 1 1
0.4999999999986921 0 0
1 0.4999999999986921 0
0.5000000000020595 1 0
0 0.5000000000020595 0
0.4999999999986921 0 1
1 0.4999999999986921 1
0.5000000000020595 1 1
0 0.5000000000020595 1
0 0 0.4999999999986921
1 0 0.4999999999986921
1 1 0.4999999999986921
0 1 0.4999999999986921
0.5000000000003758 0.5000000000003758 0
0.5000000000003758 0.5000000000003758 1
0.499999999998692 0 0.499999999998692
1 0.499999999998692 0.499999999998692
0.5000000000020595 1 0.499999999998692
0 0.5000000000020595 0.499999999998692
0.5000000000003757 0.5000000000003757 0.499999999998692

CELLS 8 72
8 0 8 20 11 16 22 26 25
8 16 22 26 25 4 12 21 15
8 11 20 10 3 25 26 24 19
8 25 26 24 19 15 21 14 7
8 8 1 9 20 22 17 23 26
8 22 17 23 26 12 5 13 21
8 20 9 2 10 26 23 18 24
8 26 23 18 24 21 13 6 14

CELL_TYPES 8
12
12
12
12
12
12
12
12

CELL_DATA 8
SCALARS CellEntityIds int 1
LOOKUP_TABLE default
1
1
1
1
1
1
1
1
