# vtk DataFile Version 2.0
3D, Created by Gmsh 4.12.2 
ASCII
DATASET UNSTRUCTURED_GRID
POINTS 82 double
0 0 0
1 0 0
1 1 0
0 1 0
0 0 1
1 0 1
1 1 1
0 1 1
0.3333333333325028 0 0
0.6666666666657888 0 0
1 0.3333333333325028 0
1 0.6666666666657888 0
0.6666666666675909 1 0
0.3333333333347207 1 0
0 0.6666666666675909 0
0 0.3333333333347207 0
0.3333333333325028 0 1
0.6666666666657888 0 1
1 0.3333333333325028 1
1 0.6666666666657888 1
0.6666666666675909 1 1
0.3333333333347207 1 1
0 0.6666666666675909 1
0 0.3333333333347207 1
0 0 0.3333333333325028
0 0 0.6666666666657888
1 0 0.3333333333325028
1 0 0.6666666666657888
1 1 0.3333333333325028
1 1 0.6666666666657888
0 1 0.3333333333325028
0 1 0.6666666666657888
0.7113248654055673 0.4999999999991457 0
0.2886751345942121 0.5000000000011559 0
0.5000000000006117 0.7525600817161774 0
0.4999999999993868 0.2474399182839604 0
0.2423197548524781 0.7576802451481529 0
0.7576802451474642 0.2423197548520694 0
0.2423197548507857 0.2423197548513913 0
0.7576802451491019 0.7576802451486099 0
0.7113248654055673 0.4999999999991457 1
0.2886751345942121 0.5000000000011559 1
0.5000000000006117 0.7525600817161774 1
0.4999999999993868 0.2474399182839604 1
0.2423197548524781 0.7576802451481529 1
0.7576802451474642 0.2423197548520694 1
0.2423197548507857 0.2423197548513913 1
0.7576802451491019 0.7576802451486099 1
0.4999999999993204 0 0.301447615129799
0.4999999999992796 0 0.7028666213189801
0.7525600817158393 0 0.5007190394076877
0.2474399182836192 0 0.5007190394076877
0.7576802451479794 0 0.7576802451479794
0.2423197548517963 0 0.7576802451477374
0.7576802451484569 0 0.2423197548510767
0.2423197548513187 0 0.2423197548513187
1 0.4999999999993204 0.301447615129799
1 0.4999999999992796 0.7028666213189801
1 0.7525600817158393 0.5007190394076877
1 0.2474399182836192 0.5007190394076877
1 0.7576802451479794 0.7576802451479794
1 0.2423197548517963 0.7576802451477374
1 0.7576802451484569 0.2423197548510767
1 0.2423197548513187 0.2423197548513187
0.5000000000008328 1 0.3014476151298047
0.5000000000009611 1 0.7028666213191928
0.2474399182842485 1 0.5007190394077241
0.7525600817164384 1 0.5007190394078933
0.2423197548520875 1 0.757680245148052
0.7576802451481496 1 0.2423197548518761
0.2423197548516099 1 0.2423197548510042
0.7576802451486875 1 0.7576802451481954
0 0.5000000000008328 0.3014476151298047
0 0.5000000000009611 0.7028666213191928
0 0.2474399182842485 0.5007190394077241
0 0.7525600817164384 0.5007190394078933
0 0.2423197548520875 0.757680245148052
0 0.7576802451481496 0.2423197548518761
0 0.2423197548516099 0.2423197548510042
0 0.7576802451486875 0.7576802451481954
0.5465322115738748 0.4534677884265762 0.5021571182243849
0.3172484898962249 0.682751510103492 0.3700854174143022

CELLS 197 985
4 42 80 44 81
4 55 74 51 80
4 67 69 58 80
4 51 74 76 80
4 67 58 60 80
4 42 44 65 81
4 78 74 55 80
4 58 69 62 80
4 38 78 55 80
4 69 39 62 80
4 68 44 79 81
4 76 53 51 80
4 60 71 67 80
4 76 46 53 80
4 71 60 47 80
4 44 68 65 81
4 38 78 80 81
4 39 80 69 81
4 38 72 78 81
4 42 41 44 80
4 42 65 47 80
4 42 65 80 81
4 71 47 65 80
4 44 80 41 81
4 71 65 67 80
4 74 73 76 80
4 35 54 37 80
4 33 38 80 81
4 52 43 45 80
4 63 37 54 80
4 59 63 50 80
4 39 32 62 80
4 33 72 38 81
4 50 61 59 80
4 52 45 61 80
4 47 60 40 80
4 40 42 47 80
4 54 50 63 80
4 35 33 38 80
4 61 50 52 80
4 48 55 51 80
4 58 62 56 80
4 51 53 49 80
4 58 57 60 80
4 41 43 46 80
4 73 41 80 81
4 35 48 54 80
4 52 49 43 80
4 65 67 80 81
4 73 80 74 81
4 62 32 56 80
4 66 68 75 81
4 40 60 57 80
4 68 79 75 81
4 63 32 37 80
4 40 61 45 80
4 35 37 32 80
4 40 45 43 80
4 75 79 73 81
4 66 65 68 81
4 63 56 32 80
4 65 64 67 81
4 73 74 72 81
4 40 57 61 80
4 59 56 63 80
4 50 54 48 80
4 42 40 41 80
4 59 61 57 80
4 49 52 50 80
4 35 32 33 80
4 34 33 32 81
4 43 41 40 80
4 33 80 32 81
4 51 49 48 80
4 58 56 57 80
4 49 50 48 80
4 57 56 59 80
4 66 64 65 81
4 72 75 73 81
4 36 34 70 81
4 66 30 70 75
4 26 50 59 63
4 55 74 24 51
4 28 58 67 69
4 51 25 76 74
4 59 50 27 61
4 68 75 31 66
4 58 60 29 67
4 77 70 30 75
4 50 26 54 63
4 74 55 24 78
4 69 28 58 62
4 75 68 31 79
4 60 71 29 67
4 25 76 53 51
4 50 27 61 52
4 66 75 70 81
4 70 34 64 81
4 33 36 77 81
4 52 43 17 45
4 46 53 43 16
4 70 36 13 34
4 54 9 35 37
4 55 8 38 35
4 12 39 69 34
4 70 75 77 81
4 46 23 41 76
4 47 19 40 60
4 41 44 79 22
4 45 61 40 18
4 62 39 11 32
4 63 32 10 37
4 14 33 36 77
4 33 77 72 81
4 17 49 43 52
4 53 49 43 16
4 35 48 9 54
4 64 70 13 34
4 8 55 48 35
4 69 64 12 34
4 70 77 36 81
4 33 34 36 81
4 73 41 23 76
4 19 57 40 60
4 41 79 73 22
4 61 57 40 18
4 56 62 11 32
4 10 56 32 63
4 14 33 77 72
4 78 0 38 55
4 5 61 52 45
4 79 68 7 44
4 53 4 46 76
4 77 36 3 70
4 62 69 2 39
4 60 47 6 71
4 1 54 63 37
4 9 8 48 35
4 12 64 13 34
4 49 43 16 17
4 21 20 42 65
4 29 58 67 28
4 27 50 59 26
4 75 66 30 31
4 51 24 25 74
4 55 78 0 24
4 69 2 28 62
4 76 53 4 25
4 3 77 70 30
4 61 27 5 52
4 71 6 60 29
4 7 31 68 79
4 54 26 1 63
4 11 10 56 32
4 33 14 15 72
4 44 68 7 21
4 5 61 45 18
4 52 17 5 45
4 7 79 44 22
4 4 23 46 76
4 53 46 4 16
4 47 6 19 60
4 47 20 6 71
4 18 57 40 19
4 73 41 22 23
4 3 14 36 77
4 36 13 3 70
4 63 10 1 37
4 78 38 0 15
4 0 8 38 55
4 1 9 54 37
4 39 69 2 12
4 2 62 39 11
4 66 70 64 81
4 72 77 75 81
4 69 81 67 64
4 67 81 69 80
4 81 78 74 72
4 81 74 78 80
4 69 34 81 64
4 81 34 69 39
4 55 35 80 48
4 80 35 55 38
4 38 72 15 78
4 15 72 38 33
4 53 43 80 46
4 80 43 53 49
4 47 65 20 71
4 20 65 47 42
4 65 44 21 68
4 65 21 44 42
4 76 41 80 73
4 76 80 41 46
4 79 41 81 44
4 81 41 79 73
4 32 81 39 34
4 39 81 32 80

CELL_TYPES 197
10
10
10
10
10
10
10
10
10
10
10
10
10
10
10
10
10
10
10
10
10
10
10
10
10
10
10
10
10
10
10
10
10
10
10
10
10
10
10
10
10
10
10
10
10
10
10
10
10
10
10
10
10
10
10
10
10
10
10
10
10
10
10
10
10
10
10
10
10
10
10
10
10
10
10
10
10
10
10
10
10
10
10
10
10
10
10
10
10
10
10
10
10
10
10
10
10
10
10
10
10
10
10
10
10
10
10
10
10
10
10
10
10
10
10
10
10
10
10
10
10
10
10
10
10
10
10
10
10
10
10
10
10
10
10
10
10
10
10
10
10
10
10
10
10
10
10
10
10
10
10
10
10
10
10
10
10
10
10
10
10
10
10
10
10
10
10
10
10
10
10
10
10
10
10
10
10
10
10
10
10
10
10
10
10
10
10
10
10
10
10
10
10
10
10
10
10

CELL_DATA 197
SCALARS CellEntityIds int 1
LOOKUP_TABLE default
1
1
1
1
1
1
1
1
1
1
1
1
1
1
1
1
1
1
1
1
1
1
1
1
1
1
1
1
1
1
1
1
1
1
1
1
1
1
1
1
1
1
1
1
1
1
1
1
1
1
1
1
1
1
1
1
1
1
1
1
1
1
1
1
1
1
1
1
1
1
1
1
1
1
1
1
1
1
1
1
1
1
1
1
1
1
1
1
1
1
1
1
1
1
1
1
1
1
1
1
1
1
1
1
1
1
1
1
1
1
1
1
1
1
1
1
1
1
1
1
1
1
1
1
1
1
1
1
1
1
1
1
1
1
1
1
1
1
1
1
1
1
1
1
1
1
1
1
1
1
1
1
1
1
1
1
1
1
1
1
1
1
1
1
1
1
1
1
1
1
1
1
1
1
1
1
1
1
1
1
1
1
1
1
1
1
1
1
1
1
1
1
1
1
1
1
1
