# vtk DataFile Version 2.0
3D_tetra, Created by Gmsh 4.12.2 
ASCII
DATASET UNSTRUCTURED_GRID
POINTS 45 double
0.0 0.0 0.0
1.0 0.0 0.0
1.0 1.0 0.0
0.0 1.0 0.0
0.0 0.0 1.0
1.0 0.0 1.0
1.0 1.0 1.0
0.0 1.0 1.0
0.5 0.0 0.0
1.0 0.5 0.0
0.5 1.0 0.0
0.0 0.5 0.0
0.5 0.0 1.0
1.0 0.5 1.0
0.5 1.0 1.0
0.0 0.5 1.0
0.0 0.0 0.5
1.0 0.0 0.5
1.0 1.0 0.5
0.0 1.0 0.5
0.29375 0.70625 0.0
0.375 0.375 0.0
0.64792 0.64375 0.0
0.71875 0.28125 0.0
0.29375 0.70625 1.0
0.375 0.375 1.0
0.64792 0.64375 1.0
0.71875 0.28125 1.0
0.73861 0.0 0.73861
0.625 0.0 0.375
0.35748 0.0 0.64914
0.28125 0.0 0.28125
1.0 0.73861 0.73861
1.0 0.625 0.375
1.0 0.35748 0.64914
1.0 0.28125 0.28125
0.29375 1.0 0.70625
0.375 1.0 0.375
0.64792 1.0 0.64375
0.71875 1.0 0.28125
0.0 0.29375 0.70625
0.0 0.375 0.375
0.0 0.64792 0.64375
0.0 0.71875 0.28125
0.50783 0.51306 0.51306

CELLS 100 500
4 30 27 28 44
4 23 35 33 44
4 20 43 41 44
4 27 34 28 44
4 23 29 35 44
4 36 26 24 44
4 20 37 43 44
4 42 36 24 44
4 33 22 23 44
4 30 25 27 44
4 30 31 41 44
4 27 12 30 28
4 34 29 28 44
4 36 38 26 44
4 34 35 29 44
4 31 21 41 44
4 32 34 26 44
4 20 41 21 44
4 36 24 26 14
4 41 40 30 44
4 27 26 34 44
4 31 29 21 44
4 37 42 43 44
4 23 21 29 44
4 39 37 22 44
4 26 38 32 44
4 39 22 33 44
4 20 22 37 44
4 40 25 30 44
4 40 42 25 44
4 38 33 32 44
4 38 39 33 44
4 20 11 41 43
4 25 42 24 44
4 36 42 37 44
4 28 29 30 44
4 30 29 31 44
4 23 22 21 44
4 14 26 36 38
4 41 43 42 44
4 25 12 30 27
4 32 33 34 44
4 21 0 31 41
4 34 33 35 44
4 16 31 41 30
4 29 35 34 17
4 26 13 34 32
4 34 28 29 17
4 21 22 20 44
4 38 6 26 32
4 33 39 2 22
4 13 34 27 26
4 10 39 37 22
4 40 41 42 44
4 43 37 19 42
4 39 38 33 18
4 30 40 4 25
4 38 32 33 18
4 10 37 20 22
4 40 42 15 25
4 25 26 27 44
4 37 39 38 44
4 11 41 21 20
4 40 16 41 30
4 29 23 35 1
4 42 24 15 25
4 3 20 37 43
4 42 36 7 24
4 23 21 8 29
4 31 8 21 29
4 42 37 19 36
4 27 28 34 5
4 25 24 26 44
4 36 37 38 44
4 41 21 0 11
4 26 14 6 38
4 22 2 33 9
4 12 30 4 25
4 8 23 29 1
4 0 31 8 21
4 17 29 35 1
4 37 19 3 43
4 33 39 18 2
4 0 16 31 41
4 28 34 5 17
4 24 7 42 15
4 5 34 27 13
4 15 4 40 25
4 20 3 37 10
4 13 26 6 32
4 32 38 6 18
4 19 42 36 7
4 10 2 39 22
4 40 4 16 30
4 28 27 12 5
4 36 7 24 14
4 9 35 23 1
4 11 20 3 43
4 23 33 9 22
4 23 9 33 35

CELL_TYPES 100
10
10
10
10
10
10
10
10
10
10
10
10
10
10
10
10
10
10
10
10
10
10
10
10
10
10
10
10
10
10
10
10
10
10
10
10
10
10
10
10
10
10
10
10
10
10
10
10
10
10
10
10
10
10
10
10
10
10
10
10
10
10
10
10
10
10
10
10
10
10
10
10
10
10
10
10
10
10
10
10
10
10
10
10
10
10
10
10
10
10
10
10
10
10
10
10
10
10
10
10

CELL_DATA 100
SCALARS CellEntityIds int 1
LOOKUP_TABLE default
1
1
1
1
1
1
1
1
1
1
1
1
1
1
1
1
1
1
1
1
1
1
1
1
1
1
1
1
1
1
1
1
1
1
1
1
1
1
1
1
1
1
1
1
1
1
1
1
1
1
1
1
1
1
1
1
1
1
1
1
1
1
1
1
1
1
1
1
1
1
1
1
1
1
1
1
1
1
1
1
1
1
1
1
1
1
1
1
1
1
1
1
1
1
1
1
1
1
1
1
