# vtk DataFile Version 2.0
3D, Created by Gmsh 4.12.2 
ASCII
DATASET UNSTRUCTURED_GRID
POINTS 27 double
0 0 0
1 0 0
1 1 0
0 1 0
0 0 1
1 0 1
1 1 1
0 1 1
0.4999999999986718 0 0
1 0.4999999999986718 0
0.5000000000013305 1 0
0 0.5000000000013305 0
0.4999999999986718 0 1
1 0.4999999999986718 1
0.5000000000013305 1 1
0 0.5000000000013305 1
0 0 0.4999999999986718
1 0 0.4999999999986718
1 1 0.4999999999986718
0 1 0.4999999999986718
0.5000000000000011 0.5000000000000011 0
0.5000000000000011 0.5000000000000011 1
0.4999999999986717 0 0.4999999999986717
1 0.4999999999986717 0.4999999999986717
0.5000000000013305 1 0.4999999999986717
0 0.5000000000013305 0.4999999999986717
0.5000000000000011 0.5000000000000011 0.4999999999986717

CELLS 1 28
27 0 1 2 3 4 5 6 7 8 9 10 11 12 13 14 15 16 17 18 19 25 23 22 24 20 21 26

CELL_TYPES 1
29

CELL_DATA 1
SCALARS CellEntityIds int 1
LOOKUP_TABLE default
1
