# vtk DataFile Version 2.0
3D, Created by Gmsh 4.12.2 
ASCII
DATASET UNSTRUCTURED_GRID
POINTS 343 double
0 0 0
1 0 0
1 1 0
0 1 0
0 0 1
1 0 1
1 1 1
0 1 1
0.333333333332501 0 0
0.6666666666657874 0 0
0.1666666666663268 0 0
0.4999999999986817 0 0
0.8333333333328937 0 0
1 0.333333333332501 0
1 0.6666666666657874 0
1 0.1666666666663268 0
1 0.4999999999986817 0
1 0.8333333333328937 0
0.6666666666675918 1 0
0.3333333333347207 1 0
0.8333333333336469 1 0
0.5000000000015389 1 0
0.1666666666673603 1 0
0 0.6666666666675918 0
0 0.3333333333347207 0
0 0.8333333333336469 0
0 0.5000000000015389 0
0 0.1666666666673603 0
0.333333333332501 0 1
0.6666666666657874 0 1
0.1666666666663268 0 1
0.4999999999986817 0 1
0.8333333333328937 0 1
1 0.333333333332501 1
1 0.6666666666657874 1
1 0.1666666666663268 1
1 0.4999999999986817 1
1 0.8333333333328937 1
0.6666666666675918 1 1
0.3333333333347207 1 1
0.8333333333336469 1 1
0.5000000000015389 1 1
0.1666666666673603 1 1
0 0.6666666666675918 1
0 0.3333333333347207 1
0 0.8333333333336469 1
0 0.5000000000015389 1
0 0.1666666666673603 1
0 0 0.333333333332501
0 0 0.6666666666657874
0 0 0.1666666666663268
0 0 0.4999999999986817
0 0 0.8333333333328937
1 0 0.333333333332501
1 0 0.6666666666657874
1 0 0.1666666666663268
1 0 0.4999999999986817
1 0 0.8333333333328937
1 1 0.333333333332501
1 1 0.6666666666657874
1 1 0.1666666666663268
1 1 0.4999999999986817
1 1 0.8333333333328937
0 1 0.333333333332501
0 1 0.6666666666657874
0 1 0.1666666666663268
0 1 0.4999999999986817
0 1 0.8333333333328937
0.3333333333332409 0.3333333333339809 0
0.3333333333339808 0.6666666666669903 0
0.666666666666389 0.3333333333332409 0
0.6666666666669903 0.666666666666389 0
0.333333333332871 0.1666666666669905 0
0.1666666666666205 0.3333333333343508 0
0.1666666666664736 0.1666666666671754 0
0.3333333333336109 0.5000000000004856 0
0.1666666666669904 0.666666666667291 0
0.1666666666668054 0.5000000000010123 0
0.3333333333343508 0.8333333333334951 0
0.1666666666671753 0.8333333333335711 0
0.6666666666660882 0.1666666666666205 0
0.4999999999998149 0.3333333333336109 0
0.4999999999992483 0.1666666666668055 0
0.6666666666666896 0.4999999999998149 0
0.5000000000004855 0.6666666666666896 0
0.5000000000001502 0.5000000000001502 0
0.666666666667291 0.8333333333331945 0
0.5000000000010122 0.8333333333333448 0
0.8333333333331945 0.333333333332871 0
0.833333333333044 0.1666666666664736 0
0.8333333333334951 0.6666666666660882 0
0.8333333333333448 0.4999999999992483 0
0.8333333333335711 0.8333333333330442 0
0.3333333333332409 0.3333333333339809 1
0.3333333333339808 0.6666666666669903 1
0.666666666666389 0.3333333333332409 1
0.6666666666669903 0.666666666666389 1
0.333333333332871 0.1666666666669905 1
0.1666666666666205 0.3333333333343508 1
0.1666666666664736 0.1666666666671754 1
0.3333333333336109 0.5000000000004856 1
0.1666666666669904 0.666666666667291 1
0.1666666666668054 0.5000000000010123 1
0.3333333333343508 0.8333333333334951 1
0.1666666666671753 0.8333333333335711 1
0.6666666666660882 0.1666666666666205 1
0.4999999999998149 0.3333333333336109 1
0.4999999999992483 0.1666666666668055 1
0.6666666666666896 0.4999999999998149 1
0.5000000000004855 0.6666666666666896 1
0.5000000000001502 0.5000000000001502 1
0.666666666667291 0.8333333333331945 1
0.5000000000010122 0.8333333333333448 1
0.8333333333331945 0.333333333332871 1
0.833333333333044 0.1666666666664736 1
0.8333333333334951 0.6666666666660882 1
0.8333333333333448 0.4999999999992483 1
0.8333333333335711 0.8333333333330442 1
0.333333333332501 0 0.333333333332501
0.333333333332501 0 0.6666666666657874
0.6666666666657874 0 0.333333333332501
0.6666666666657874 0 0.6666666666657874
0.333333333332501 0 0.1666666666662505
0.1666666666662505 0 0.333333333332501
0.1666666666662887 0 0.1666666666662887
0.333333333332501 0 0.4999999999991442
0.1666666666662505 0 0.6666666666657874
0.1666666666662505 0 0.499999999998913
0.333333333332501 0 0.8333333333328937
0.1666666666662887 0 0.8333333333328937
0.6666666666657874 0 0.1666666666662505
0.4999999999991442 0 0.333333333332501
0.499999999998913 0 0.1666666666662505
0.6666666666657874 0 0.4999999999991442
0.4999999999991442 0 0.6666666666657874
0.4999999999991442 0 0.4999999999991442
0.6666666666657874 0 0.8333333333328937
0.499999999998913 0 0.8333333333328937
0.8333333333328937 0 0.333333333332501
0.8333333333328936 0 0.1666666666662887
0.8333333333328937 0 0.6666666666657874
0.8333333333328936 0 0.499999999998913
0.8333333333328936 0 0.8333333333328937
1 0.333333333332501 0.333333333332501
1 0.333333333332501 0.6666666666657874
1 0.6666666666657874 0.333333333332501
1 0.6666666666657874 0.6666666666657874
1 0.333333333332501 0.1666666666662505
1 0.1666666666662505 0.333333333332501
1 0.1666666666662887 0.1666666666662887
1 0.333333333332501 0.4999999999991442
1 0.1666666666662505 0.6666666666657874
1 0.1666666666662505 0.499999999998913
1 0.333333333332501 0.8333333333328937
1 0.1666666666662887 0.8333333333328937
1 0.6666666666657874 0.1666666666662505
1 0.4999999999991442 0.333333333332501
1 0.499999999998913 0.1666666666662505
1 0.6666666666657874 0.4999999999991442
1 0.4999999999991442 0.6666666666657874
1 0.4999999999991442 0.4999999999991442
1 0.6666666666657874 0.8333333333328937
1 0.499999999998913 0.8333333333328937
1 0.8333333333328937 0.333333333332501
1 0.8333333333328936 0.1666666666662887
1 0.8333333333328937 0.6666666666657874
1 0.8333333333328936 0.499999999998913
1 0.8333333333328936 0.8333333333328937
0.6666666666675918 1 0.333333333332501
0.6666666666675918 1 0.6666666666657874
0.3333333333347207 1 0.333333333332501
0.3333333333347207 1 0.6666666666657874
0.6666666666675918 1 0.1666666666662505
0.8333333333337959 1 0.333333333332501
0.8333333333337214 1 0.1666666666662887
0.6666666666675918 1 0.4999999999991442
0.8333333333337959 1 0.6666666666657874
0.8333333333337959 1 0.499999999998913
0.6666666666675918 1 0.8333333333328937
0.8333333333337214 1 0.8333333333328937
0.3333333333347207 1 0.1666666666662505
0.5000000000011562 1 0.333333333332501
0.5000000000013476 1 0.1666666666662505
0.3333333333347207 1 0.4999999999991442
0.5000000000011562 1 0.6666666666657874
0.5000000000011562 1 0.4999999999991442
0.3333333333347207 1 0.8333333333328937
0.5000000000013476 1 0.8333333333328937
0.1666666666673604 1 0.333333333332501
0.1666666666673603 1 0.1666666666662887
0.1666666666673604 1 0.6666666666657874
0.1666666666673604 1 0.499999999998913
0.1666666666673603 1 0.8333333333328937
0 0.6666666666675918 0.333333333332501
0 0.6666666666675918 0.6666666666657874
0 0.3333333333347207 0.333333333332501
0 0.3333333333347207 0.6666666666657874
0 0.6666666666675918 0.1666666666662505
0 0.8333333333337959 0.333333333332501
0 0.8333333333337214 0.1666666666662887
0 0.6666666666675918 0.4999999999991442
0 0.8333333333337959 0.6666666666657874
0 0.8333333333337959 0.499999999998913
0 0.6666666666675918 0.8333333333328937
0 0.8333333333337214 0.8333333333328937
0 0.3333333333347207 0.1666666666662505
0 0.5000000000011562 0.333333333332501
0 0.5000000000013476 0.1666666666662505
0 0.3333333333347207 0.4999999999991442
0 0.5000000000011562 0.6666666666657874
0 0.5000000000011562 0.4999999999991442
0 0.3333333333347207 0.8333333333328937
0 0.5000000000013476 0.8333333333328937
0 0.1666666666673604 0.333333333332501
0 0.1666666666673603 0.1666666666662887
0 0.1666666666673604 0.6666666666657874
0 0.1666666666673604 0.499999999998913
0 0.1666666666673603 0.8333333333328937
0.3333333333332408 0.3333333333339809 0.333333333332501
0.3333333333332409 0.333333333333981 0.6666666666657874
0.333333333333981 0.6666666666669898 0.333333333332501
0.3333333333339809 0.6666666666669903 0.6666666666657874
0.6666666666663886 0.3333333333332409 0.333333333332501
0.6666666666663887 0.3333333333332408 0.6666666666657873
0.6666666666669905 0.6666666666663887 0.333333333332501
0.6666666666669904 0.6666666666663887 0.6666666666657874
0.3333333333332409 0.3333333333339809 0.1666666666662505
0.3333333333328709 0.1666666666669904 0.333333333332501
0.1666666666666204 0.3333333333343508 0.333333333332501
0.333333333332871 0.1666666666669904 0.1666666666662505
0.1666666666666204 0.3333333333343508 0.1666666666662505
0.1666666666664355 0.1666666666671754 0.333333333332501
0.1666666666664546 0.1666666666671754 0.1666666666662696
0.3333333333332408 0.3333333333339809 0.4999999999991442
0.333333333332871 0.1666666666669905 0.6666666666657874
0.1666666666666204 0.3333333333343508 0.6666666666657874
0.3333333333328709 0.1666666666669905 0.4999999999991442
0.1666666666666204 0.3333333333343508 0.4999999999991442
0.1666666666664355 0.1666666666671754 0.6666666666657874
0.1666666666664355 0.1666666666671754 0.4999999999990285
0.3333333333332409 0.333333333333981 0.8333333333328937
0.333333333332871 0.1666666666669905 0.8333333333328937
0.1666666666666204 0.3333333333343508 0.8333333333328937
0.1666666666664545 0.1666666666671754 0.8333333333328937
0.3333333333339809 0.66666666666699 0.1666666666662505
0.3333333333336109 0.5000000000004854 0.333333333332501
0.1666666666669905 0.6666666666672908 0.333333333332501
0.3333333333336109 0.5000000000004854 0.1666666666662505
0.1666666666669904 0.6666666666672909 0.1666666666662505
0.1666666666668054 0.5000000000008208 0.333333333332501
0.1666666666668055 0.5000000000009164 0.1666666666662505
0.3333333333339809 0.66666666666699 0.4999999999991442
0.3333333333336109 0.5000000000004856 0.6666666666657874
0.1666666666669904 0.666666666667291 0.6666666666657874
0.3333333333336109 0.5000000000004855 0.4999999999991442
0.1666666666669905 0.6666666666672909 0.4999999999991442
0.1666666666668054 0.5000000000008209 0.6666666666657874
0.1666666666668054 0.5000000000008207 0.4999999999991442
0.3333333333339809 0.6666666666669903 0.8333333333328937
0.3333333333336109 0.5000000000004856 0.8333333333328937
0.1666666666669904 0.666666666667291 0.8333333333328937
0.1666666666668054 0.5000000000009166 0.8333333333328937
0.3333333333343508 0.8333333333334949 0.333333333332501
0.3333333333343508 0.833333333333495 0.1666666666662505
0.1666666666671754 0.8333333333336455 0.333333333332501
0.1666666666671754 0.8333333333336084 0.1666666666662696
0.3333333333343508 0.8333333333334951 0.6666666666657874
0.3333333333343508 0.833333333333495 0.4999999999991442
0.1666666666671754 0.8333333333336456 0.6666666666657874
0.1666666666671754 0.8333333333336457 0.4999999999990284
0.3333333333343508 0.8333333333334951 0.8333333333328937
0.1666666666671754 0.8333333333336085 0.8333333333328937
0.6666666666663887 0.3333333333332409 0.1666666666662505
0.6666666666660881 0.1666666666666204 0.333333333332501
0.4999999999998147 0.3333333333336109 0.333333333332501
0.6666666666660881 0.1666666666666204 0.1666666666662505
0.4999999999998148 0.3333333333336109 0.1666666666662505
0.4999999999994795 0.1666666666668054 0.333333333332501
0.4999999999993639 0.1666666666668055 0.1666666666662505
0.6666666666663887 0.3333333333332409 0.4999999999991441
0.6666666666660881 0.1666666666666204 0.6666666666657874
0.4999999999998148 0.3333333333336109 0.6666666666657874
0.6666666666660881 0.1666666666666204 0.4999999999991442
0.4999999999998148 0.3333333333336109 0.4999999999991442
0.4999999999994795 0.1666666666668055 0.6666666666657874
0.4999999999994796 0.1666666666668054 0.4999999999991442
0.6666666666663889 0.3333333333332409 0.8333333333328936
0.6666666666660882 0.1666666666666204 0.8333333333328936
0.4999999999998149 0.3333333333336109 0.8333333333328936
0.4999999999993641 0.1666666666668055 0.8333333333328936
0.6666666666669904 0.6666666666663889 0.1666666666662505
0.6666666666666896 0.4999999999998148 0.333333333332501
0.5000000000004857 0.6666666666666893 0.333333333332501
0.6666666666666896 0.4999999999998149 0.1666666666662505
0.5000000000004856 0.6666666666666895 0.1666666666662505
0.5000000000001502 0.5000000000001501 0.333333333332501
0.50000000000015 0.5000000000001503 0.1666666666662505
0.6666666666669905 0.6666666666663887 0.4999999999991442
0.6666666666666896 0.4999999999998148 0.6666666666657874
0.5000000000004856 0.6666666666666895 0.6666666666657874
0.6666666666666896 0.4999999999998148 0.4999999999991442
0.5000000000004857 0.6666666666666894 0.4999999999991442
0.5000000000001502 0.5000000000001502 0.6666666666657874
0.50000000000015 0.5000000000001501 0.4999999999991442
0.6666666666669903 0.6666666666663889 0.8333333333328937
0.6666666666666896 0.4999999999998149 0.8333333333328936
0.5000000000004855 0.6666666666666895 0.8333333333328937
0.5000000000001501 0.5000000000001503 0.8333333333328934
0.6666666666672911 0.8333333333331944 0.333333333332501
0.666666666667291 0.8333333333331944 0.1666666666662505
0.5000000000008209 0.8333333333333447 0.333333333332501
0.5000000000009163 0.833333333333345 0.1666666666662505
0.6666666666672911 0.8333333333331944 0.6666666666657874
0.6666666666672911 0.8333333333331943 0.4999999999991442
0.5000000000008209 0.8333333333333448 0.6666666666657874
0.5000000000008206 0.8333333333333446 0.4999999999991442
0.6666666666672909 0.8333333333331944 0.8333333333328937
0.5000000000009166 0.8333333333333446 0.8333333333328937
0.8333333333331943 0.333333333332871 0.333333333332501
0.8333333333331944 0.333333333332871 0.1666666666662505
0.8333333333330439 0.1666666666664355 0.333333333332501
0.8333333333330439 0.1666666666664545 0.1666666666662696
0.8333333333331944 0.333333333332871 0.6666666666657874
0.8333333333331945 0.333333333332871 0.4999999999991442
0.8333333333330439 0.1666666666664355 0.6666666666657874
0.8333333333330439 0.1666666666664355 0.4999999999990285
0.8333333333331944 0.333333333332871 0.8333333333328936
0.8333333333330439 0.1666666666664545 0.8333333333328936
0.8333333333334952 0.6666666666660881 0.333333333332501
0.8333333333334952 0.6666666666660882 0.1666666666662505
0.8333333333333448 0.4999999999994795 0.333333333332501
0.8333333333333448 0.499999999999364 0.1666666666662505
0.8333333333334951 0.6666666666660881 0.6666666666657874
0.8333333333334951 0.6666666666660881 0.4999999999991442
0.8333333333333448 0.4999999999994795 0.6666666666657874
0.8333333333333447 0.4999999999994795 0.4999999999991442
0.8333333333334951 0.6666666666660882 0.8333333333328937
0.8333333333333447 0.4999999999993641 0.8333333333328935
0.8333333333336457 0.833333333333044 0.333333333332501
0.833333333333608 0.833333333333044 0.1666666666662696
0.8333333333336456 0.833333333333044 0.6666666666657874
0.8333333333336453 0.8333333333330439 0.4999999999990284
0.833333333333608 0.8333333333330439 0.8333333333328937

CELLS 27 756
27 0 8 68 24 48 118 218 195 10 72 73 27 123 227 228 213 50 122 226 205 214 229 124 230 74 231 232
27 48 118 218 195 49 119 219 196 123 227 228 213 126 234 235 215 51 125 233 208 216 236 127 237 231 238 239
27 49 119 219 196 4 28 93 44 126 234 235 215 30 97 98 47 52 128 240 211 217 241 129 242 238 99 243
27 24 68 69 23 195 218 220 193 73 75 76 26 228 245 246 206 205 226 244 197 207 247 230 248 77 249 250
27 195 218 220 193 196 219 221 194 228 245 246 206 235 252 253 209 208 233 251 200 210 254 237 255 249 256 257
27 196 219 221 194 44 93 94 43 235 252 253 209 98 100 101 46 211 240 258 203 212 259 242 260 256 102 261
27 23 69 19 3 193 220 170 63 76 78 22 25 246 262 188 198 197 244 180 65 199 263 248 189 79 264 265
27 193 220 170 63 194 221 171 64 246 262 188 198 253 266 190 201 200 251 183 66 202 267 255 191 264 268 269
27 194 221 171 64 43 94 39 7 253 266 190 201 101 103 42 45 203 258 186 67 204 270 260 192 268 104 271
27 8 9 70 68 118 120 222 218 11 80 81 72 131 273 274 227 122 130 272 226 229 275 132 276 82 277 278
27 118 120 222 218 119 121 223 219 131 273 274 227 134 280 281 234 125 133 279 233 236 282 135 283 277 284 285
27 119 121 223 219 28 29 95 93 134 280 281 234 31 105 106 97 128 136 286 240 241 287 137 288 284 107 289
27 68 70 71 69 218 222 224 220 81 83 84 75 274 291 292 245 226 272 290 244 247 293 276 294 85 295 296
27 218 222 224 220 219 223 225 221 274 291 292 245 281 298 299 252 233 279 297 251 254 300 283 301 295 302 303
27 219 223 225 221 93 95 96 94 281 298 299 252 106 108 109 100 240 286 304 258 259 305 288 306 302 110 307
27 69 71 18 19 220 224 168 170 84 86 21 78 292 308 181 262 244 290 172 180 263 309 294 182 87 310 311
27 220 224 168 170 221 225 169 171 292 308 181 262 299 312 184 266 251 297 175 183 267 313 301 185 310 314 315
27 221 225 169 171 94 96 38 39 299 312 184 266 109 111 41 103 258 304 178 186 270 316 306 187 314 112 317
27 9 1 13 70 120 53 143 222 12 15 88 80 138 148 318 273 130 55 147 272 275 149 139 319 89 320 321
27 120 53 143 222 121 54 144 223 138 148 318 273 140 151 322 280 133 56 150 279 282 152 141 323 320 324 325
27 121 54 144 223 29 5 33 95 140 151 322 280 32 35 113 105 136 57 153 286 287 154 142 326 324 114 327
27 70 13 14 71 222 143 145 224 88 16 90 83 318 156 328 291 272 147 155 290 293 157 319 329 91 330 331
27 222 143 145 224 223 144 146 225 318 156 328 291 322 159 332 298 279 150 158 297 300 160 323 333 330 334 335
27 223 144 146 225 95 33 34 96 322 159 332 298 113 36 115 108 286 153 161 304 305 162 326 336 334 116 337
27 71 14 2 18 224 145 58 168 90 17 20 86 328 163 173 308 290 155 60 172 309 164 329 174 92 338 339
27 224 145 58 168 225 146 59 169 328 163 173 308 332 165 176 312 297 158 61 175 313 166 333 177 338 340 341
27 225 146 59 169 96 34 6 38 332 165 176 312 115 37 40 111 304 161 62 178 316 167 336 179 340 117 342

CELL_TYPES 27
29
29
29
29
29
29
29
29
29
29
29
29
29
29
29
29
29
29
29
29
29
29
29
29
29
29
29

CELL_DATA 27
SCALARS CellEntityIds int 1
LOOKUP_TABLE default
1
1
1
1
1
1
1
1
1
1
1
1
1
1
1
1
1
1
1
1
1
1
1
1
1
1
1
