# vtk DataFile Version 2.0
3D, Created by Gmsh 4.12.2 
ASCII
DATASET UNSTRUCTURED_GRID
POINTS 22 double
0 0 0
1 0 0
0 1 0
0 0 1
1 0 1
0 1 1
1 1 0
1 1 1
0.5 0 0
0.5 0.5 0
0 0.5 0
0 0 0.5
1 0 0.5
0 1 0.5
0.5 0 1
0.5 0.5 1
0 0.5 1
0.5 1 0
1 0.5 0
1 1 0.5
0.5 1 1
1 0.5 1

CELLS 2 32
15 0 1 2 3 4 5 8 9 10 11 12 13 14 15 16
15 6 2 1 7 5 4 17 9 18 19 13 12 20 15 21

CELL_TYPES 2
13
13

CELL_DATA 2
SCALARS CellEntityIds int 1
LOOKUP_TABLE default
1
1
