# vtk DataFile Version 2.0
3D, Created by Gmsh 4.12.2 
ASCII
DATASET UNSTRUCTURED_GRID
POINTS 69 double
0 0 0
1 0 0
1 1 0
0 1 0
0 0 1
1 0 1
1 1 1
0 1 1
0.4999999999986718 0 0
1 0.4999999999986718 0
0.5000000000013305 1 0
0 0.5000000000013305 0
0.4999999999986718 0 1
1 0.4999999999986718 1
0.5000000000013305 1 1
0 0.5000000000013305 1
0 0 0.4999999999986718
1 0 0.4999999999986718
1 1 0.4999999999986718
0 1 0.4999999999986718
0.5000000000000011 0.5000000000000011 0
0.5000000000000011 0.5000000000000011 1
0.4999999999986717 0 0.4999999999986717
1 0.4999999999986717 0.4999999999986717
0.5000000000013305 1 0.4999999999986717
0 0.5000000000013305 0.4999999999986717
0.5 0.5 0.4500005
0.5 0.5 0.5499995
0.5 0.4500005 0.5
0.5499995 0.5 0.5
0.5 0.5499995 0.5
0.4500005 0.5 0.5
0.22500025 0.25 0.75
0.22500025 0.25 0.25
0.47500025 0.47500025 0.5
0.25 0.22500025 0.25
0.25 0.22500025 0.75
0.25 0.25 0.77499975
0.5 0.47500025 0.52499975
0.75 0.25 0.77499975
0.75 0.22500025 0.75
0.5 0.52499975 0.47500025
0.47500025 0.52499975 0.5
0.47500025 0.5 0.47500025
0.52499975 0.5 0.47500025
0.5 0.5 0.5
0.52499975 0.52499975 0.5
0.25 0.75 0.77499975
0.22500025 0.75 0.75
0.47500025 0.5 0.52499975
0.25 0.77499975 0.25
0.25 0.77499975 0.75
0.22500025 0.75 0.25
0.25 0.25 0.22500025
0.25 0.75 0.22500025
0.52499975 0.47500025 0.5
0.52499975 0.5 0.52499975
0.5 0.47500025 0.47500025
0.5 0.52499975 0.52499975
0.75 0.77499975 0.75
0.75 0.75 0.77499975
0.75 0.75 0.22500025
0.75 0.77499975 0.25
0.77499975 0.75 0.75
0.77499975 0.25 0.75
0.77499975 0.25 0.25
0.75 0.22500025 0.25
0.75 0.25 0.22500025
0.77499975 0.75 0.25

CELLS 30 354
10 31 4 0 28 32 16 33 34 36 35
10 27 4 28 5 37 36 38 39 12 40
10 26 30 31 29 41 42 43 44 46 45
10 7 27 4 31 47 37 15 48 49 32
10 7 3 30 31 19 50 51 48 52 42
10 3 0 26 31 11 53 54 52 33 43
10 28 31 27 29 34 49 38 55 45 56
10 28 26 31 29 57 43 34 55 44 45
10 31 30 27 29 42 58 49 45 46 56
10 30 7 27 6 51 47 58 59 14 60
10 3 30 26 2 50 41 54 10 62 61
10 6 5 27 29 13 39 60 63 64 56
10 29 5 28 1 64 40 55 65 17 66
10 0 26 28 1 53 57 35 8 67 66
10 2 6 30 29 18 59 62 68 63 46
10 29 26 2 1 44 61 68 65 67 9
10 31 0 26 28 33 53 43 34 35 57
10 27 4 31 28 37 32 49 38 36 34
10 27 7 30 31 47 51 58 49 48 42
10 26 30 3 31 41 50 54 43 42 52
10 5 28 27 29 40 38 39 64 55 56
10 30 26 2 29 41 61 62 46 44 68
10 27 30 6 29 58 59 60 56 46 63
10 29 28 26 1 55 57 44 65 66 67
14 0 1 2 3 26 8 9 10 11 53 67 61 54 20
14 6 5 4 7 27 13 12 15 14 60 39 37 47 21
14 5 1 0 4 28 17 8 16 12 40 66 35 36 22
14 6 2 1 5 29 18 9 17 13 63 68 65 64 23
14 7 3 2 6 30 19 10 18 14 51 50 62 59 24
14 4 0 3 7 31 16 11 19 15 32 33 52 48 25

CELL_TYPES 30
24
24
24
24
24
24
24
24
24
24
24
24
24
24
24
24
24
24
24
24
24
24
24
24
14
14
14
14
14
14

CELL_DATA 30
SCALARS CellEntityIds int 1
LOOKUP_TABLE default
1
1
1
1
1
1
1
1
1
1
1
1
1
1
1
1
1
1
1
1
1
1
1
1
1
1
1
1
1
1
