# vtk DataFile Version 2.0
3D, Created by Gmsh 4.12.2 
ASCII
DATASET UNSTRUCTURED_GRID
POINTS 438 double
0 0 0
1 0 0
1 1 0
0 1 0
0 0 1
1 0 1
1 1 1
0 1 1
0.3333333333325028 0 0
0.6666666666657888 0 0
0.1666666666663277 0 0
0.4999999999986832 0 0
0.8333333333328944 0 0
1 0.3333333333325028 0
1 0.6666666666657888 0
1 0.1666666666663277 0
1 0.4999999999986832 0
1 0.8333333333328944 0
0.6666666666675909 1 0
0.3333333333347207 1 0
0.8333333333336392 1 0
0.5000000000014087 1 0
0.1666666666673603 1 0
0 0.6666666666675909 0
0 0.3333333333347207 0
0 0.8333333333336392 0
0 0.5000000000014087 0
0 0.1666666666673603 0
0.3333333333325028 0 1
0.6666666666657888 0 1
0.1666666666663277 0 1
0.4999999999986832 0 1
0.8333333333328944 0 1
1 0.3333333333325028 1
1 0.6666666666657888 1
1 0.1666666666663277 1
1 0.4999999999986832 1
1 0.8333333333328944 1
0.6666666666675909 1 1
0.3333333333347207 1 1
0.8333333333336392 1 1
0.5000000000014087 1 1
0.1666666666673603 1 1
0 0.6666666666675909 1
0 0.3333333333347207 1
0 0.8333333333336392 1
0 0.5000000000014087 1
0 0.1666666666673603 1
0 0 0.3333333333325028
0 0 0.6666666666657888
0 0 0.1666666666663277
0 0 0.4999999999986832
0 0 0.8333333333328944
1 0 0.3333333333325028
1 0 0.6666666666657888
1 0 0.1666666666663277
1 0 0.4999999999986832
1 0 0.8333333333328944
1 1 0.3333333333325028
1 1 0.6666666666657888
1 1 0.1666666666663277
1 1 0.4999999999986832
1 1 0.8333333333328944
0 1 0.3333333333325028
0 1 0.6666666666657888
0 1 0.1666666666663277
0 1 0.4999999999986832
0 1 0.8333333333328944
0.7113248654055673 0.4999999999991457 0
0.2886751345942121 0.5000000000011559 0
0.5000000000006117 0.7525600817161774 0
0.4999999999993868 0.2474399182839604 0
0.2423197548524781 0.7576802451481529 0
0.7576802451474642 0.2423197548520694 0
0.2423197548507857 0.2423197548513913 0
0.7576802451491019 0.7576802451486099 0
0.2878265440916443 0.1211598774256957 0
0.1211598774253929 0.1211598774256957 0
0.1211598774253929 0.287826544093056 0
0.8788401225737321 0.1211598774260347 0
0.7121734559066265 0.1211598774260347 0
0.8788401225737321 0.2878265440922861 0
0.878840122574551 0.878840122574305 0
0.878840122574551 0.7121734559071993 0
0.7121734559083464 0.878840122574305 0
0.1211598774262391 0.8788401225740765 0
0.2878265440935994 0.8788401225740765 0
0.1211598774262391 0.7121734559078718 0
0.5833333333325877 0.1237199591419802 0
0.4166666666659448 0.1237199591419802 0
0.3711598774250863 0.2448798365676759 0
0.6288401225734255 0.2448798365680149 0
0.8556624327027836 0.5833333333324673 0
0.8556624327027836 0.4166666666658243 0
0.7345025552765158 0.3711598774256076 0
0.7345025552773345 0.6288401225738778 0
0.4166666666676662 0.8762800408580886 0
0.5833333333341013 0.8762800408580886 0
0.6288401225748568 0.7551201634323936 0
0.3711598774265449 0.7551201634321651 0
0.1443375672971061 0.4166666666679383 0
0.1443375672971061 0.5833333333343733 0
0.2654974447233451 0.6288401225746544 0
0.2654974447224989 0.3711598774262735 0
0.4999999999998897 0.5000000000001508 0
0.6056624327030895 0.6262800408576615 0
0.3943375672974119 0.6262800408586666 0
0.3943375672967995 0.3737199591425581 0
0.605662432702477 0.3737199591415531 0
0.7113248654055673 0.4999999999991457 1
0.2886751345942121 0.5000000000011559 1
0.5000000000006117 0.7525600817161774 1
0.4999999999993868 0.2474399182839604 1
0.2423197548524781 0.7576802451481529 1
0.7576802451474642 0.2423197548520694 1
0.2423197548507857 0.2423197548513913 1
0.7576802451491019 0.7576802451486099 1
0.2878265440916443 0.1211598774256957 1
0.1211598774253929 0.1211598774256957 1
0.1211598774253929 0.287826544093056 1
0.8788401225737321 0.1211598774260347 1
0.7121734559066265 0.1211598774260347 1
0.8788401225737321 0.2878265440922861 1
0.878840122574551 0.878840122574305 1
0.878840122574551 0.7121734559071993 1
0.7121734559083464 0.878840122574305 1
0.1211598774262391 0.8788401225740765 1
0.2878265440935994 0.8788401225740765 1
0.1211598774262391 0.7121734559078718 1
0.5833333333325877 0.1237199591419802 1
0.4166666666659448 0.1237199591419802 1
0.3711598774250863 0.2448798365676759 1
0.6288401225734255 0.2448798365680149 1
0.8556624327027836 0.5833333333324673 1
0.8556624327027836 0.4166666666658243 1
0.7345025552765158 0.3711598774256076 1
0.7345025552773345 0.6288401225738778 1
0.4166666666676662 0.8762800408580886 1
0.5833333333341013 0.8762800408580886 1
0.6288401225748568 0.7551201634323936 1
0.3711598774265449 0.7551201634321651 1
0.1443375672971061 0.4166666666679383 1
0.1443375672971061 0.5833333333343733 1
0.2654974447233451 0.6288401225746544 1
0.2654974447224989 0.3711598774262735 1
0.4999999999998897 0.5000000000001508 1
0.6056624327030895 0.6262800408576615 1
0.3943375672974119 0.6262800408586666 1
0.3943375672967995 0.3737199591425581 1
0.605662432702477 0.3737199591415531 1
0.4999999999993204 0 0.301447615129799
0.4999999999992796 0 0.7028666213189801
0.7525600817158393 0 0.5007190394076877
0.2474399182836192 0 0.5007190394076877
0.7576802451479794 0 0.7576802451479794
0.2423197548517963 0 0.7576802451477374
0.7576802451484569 0 0.2423197548510767
0.2423197548513187 0 0.2423197548513187
0.2878265440919108 0 0.1211598774256593
0.1211598774256594 0 0.1211598774256593
0.1211598774256594 0 0.2878265440919107
0.8788401225742284 0 0.1211598774255384
0.7121734559071229 0 0.1211598774255384
0.8788401225742284 0 0.2878265440917898
0.1211598774258981 0 0.8788401225738687
0.2878265440921496 0 0.8788401225738687
0.1211598774258981 0 0.7121734559067631
0.7121734559068841 0 0.8788401225739897
0.8788401225739897 0 0.8788401225739897
0.8788401225739897 0 0.7121734559068841
0.5833333333325545 0 0.1507238075648995
0.4166666666659116 0 0.1507238075648995
0.3711598774253196 0 0.2718836849905588
0.6288401225738887 0 0.2718836849904379
0.4166666666658912 0 0.85143331065949
0.5833333333325341 0 0.85143331065949
0.3711598774255379 0 0.7302734332333587
0.6288401225736295 0 0.7302734332334797
0.1237199591418096 0 0.4170261863700953
0.1237199591418096 0 0.5836928530367382
0.2448798365674689 0 0.3715193971295032
0.2448798365677077 0 0.6291996422777125
0.8762800408579197 0 0.5836928530367382
0.8762800408579197 0 0.4170261863700953
0.7551201634321481 0 0.3715193971293822
0.7551201634319094 0 0.6291996422778335
0.4999999999993 0 0.5021571182243896
0.6262800408575799 0 0.4010833272687434
0.6262800408575595 0 0.601792830363334
0.3737199591414494 0 0.601792830363334
0.3737199591414698 0 0.4010833272687434
1 0.4999999999993204 0.301447615129799
1 0.4999999999992796 0.7028666213189801
1 0.7525600817158393 0.5007190394076877
1 0.2474399182836192 0.5007190394076877
1 0.7576802451479794 0.7576802451479794
1 0.2423197548517963 0.7576802451477374
1 0.7576802451484569 0.2423197548510767
1 0.2423197548513187 0.2423197548513187
1 0.2878265440919108 0.1211598774256593
1 0.1211598774256594 0.1211598774256593
1 0.1211598774256594 0.2878265440919107
1 0.8788401225742284 0.1211598774255384
1 0.7121734559071229 0.1211598774255384
1 0.8788401225742284 0.2878265440917898
1 0.1211598774258981 0.8788401225738687
1 0.2878265440921496 0.8788401225738687
1 0.1211598774258981 0.7121734559067631
1 0.7121734559068841 0.8788401225739897
1 0.8788401225739897 0.8788401225739897
1 0.8788401225739897 0.7121734559068841
1 0.5833333333325545 0.1507238075648995
1 0.4166666666659116 0.1507238075648995
1 0.3711598774253196 0.2718836849905588
1 0.6288401225738887 0.2718836849904379
1 0.4166666666658912 0.85143331065949
1 0.5833333333325341 0.85143331065949
1 0.3711598774255379 0.7302734332333587
1 0.6288401225736295 0.7302734332334797
1 0.1237199591418096 0.4170261863700953
1 0.1237199591418096 0.5836928530367382
1 0.2448798365674689 0.3715193971295032
1 0.2448798365677077 0.6291996422777125
1 0.8762800408579197 0.5836928530367382
1 0.8762800408579197 0.4170261863700953
1 0.7551201634321481 0.3715193971293822
1 0.7551201634319094 0.6291996422778335
1 0.4999999999993 0.5021571182243896
1 0.6262800408575799 0.4010833272687434
1 0.6262800408575595 0.601792830363334
1 0.3737199591414494 0.601792830363334
1 0.3737199591414698 0.4010833272687434
0.5000000000008328 1 0.3014476151298047
0.5000000000009611 1 0.7028666213191928
0.2474399182842485 1 0.5007190394077241
0.7525600817164384 1 0.5007190394078933
0.2423197548520875 1 0.757680245148052
0.7576802451481496 1 0.2423197548518761
0.2423197548516099 1 0.2423197548510042
0.7576802451486875 1 0.7576802451481954
0.7121734559078703 1 0.121159877425938
0.8788401225740747 1 0.121159877425938
0.8788401225740747 1 0.2878265440921894
0.1211598774258049 1 0.1211598774255021
0.2878265440931653 1 0.1211598774255021
0.1211598774258049 1 0.2878265440917535
0.8788401225743437 1 0.8788401225740977
0.7121734559081392 1 0.8788401225740977
0.8788401225743437 1 0.7121734559069921
0.2878265440934041 1 0.878840122574026
0.1211598774260437 1 0.878840122574026
0.1211598774260437 1 0.7121734559069204
0.4166666666677767 1 0.1507238075649023
0.5833333333342119 1 0.1507238075649023
0.6288401225744912 1 0.2718836849908404
0.3711598774262214 1 0.2718836849904044
0.5833333333342761 1 0.8514333106595964
0.4166666666678409 1 0.8514333106595964
0.6288401225748244 1 0.7302734332336941
0.3711598774265243 1 0.7302734332336224
0.8762800408582192 1 0.4170261863701981
0.8762800408582192 1 0.583692853036841
0.7551201634322939 1 0.3715193971298847
0.7551201634325629 1 0.6291996422780444
0.1237199591421243 1 0.5836928530367564
0.1237199591421243 1 0.4170261863701135
0.2448798365679292 1 0.3715193971293642
0.244879836568168 1 0.629199642277888
0.5000000000008969 1 0.5021571182244987
0.3737199591425406 1 0.4010833272687644
0.3737199591426048 1 0.6017928303634584
0.6262800408586997 1 0.601792830363543
0.6262800408586355 1 0.401083327268849
0 0.5000000000008328 0.3014476151298047
0 0.5000000000009611 0.7028666213191928
0 0.2474399182842485 0.5007190394077241
0 0.7525600817164384 0.5007190394078933
0 0.2423197548520875 0.757680245148052
0 0.7576802451481496 0.2423197548518761
0 0.2423197548516099 0.2423197548510042
0 0.7576802451486875 0.7576802451481954
0 0.1211598774258049 0.1211598774255021
0 0.2878265440931653 0.1211598774255021
0 0.1211598774258049 0.2878265440917535
0 0.7121734559078703 0.121159877425938
0 0.8788401225740747 0.121159877425938
0 0.8788401225740747 0.2878265440921894
0 0.2878265440934041 0.878840122574026
0 0.1211598774260437 0.878840122574026
0 0.1211598774260437 0.7121734559069204
0 0.8788401225743437 0.8788401225740977
0 0.7121734559081392 0.8788401225740977
0 0.8788401225743437 0.7121734559069921
0 0.4166666666677767 0.1507238075649023
0 0.5833333333342119 0.1507238075649023
0 0.6288401225744912 0.2718836849908404
0 0.3711598774262214 0.2718836849904044
0 0.5833333333342761 0.8514333106595964
0 0.4166666666678409 0.8514333106595964
0 0.6288401225748244 0.7302734332336941
0 0.3711598774265243 0.7302734332336224
0 0.1237199591421243 0.5836928530367564
0 0.1237199591421243 0.4170261863701135
0 0.2448798365679292 0.3715193971293642
0 0.244879836568168 0.629199642277888
0 0.8762800408582192 0.4170261863701981
0 0.8762800408582192 0.583692853036841
0 0.7551201634322939 0.3715193971298847
0 0.7551201634325629 0.6291996422780444
0 0.5000000000008969 0.5021571182244987
0 0.3737199591425406 0.4010833272687644
0 0.3737199591426048 0.6017928303634584
0 0.6262800408586997 0.601792830363543
0 0.6262800408586355 0.401083327268849
0.5465322115738748 0.4534677884265762 0.5021571182243849
0.3172484898962249 0.682751510103492 0.3700854174143022
0.5232661057872432 0.6030139350713768 0.7510785591121925
0.3944259832131765 0.6055740167873646 0.7510785591121925
0.4086242449484183 0.7176557959098346 0.6850427087071511
0.2797841223743515 0.7202158776258225 0.6850427087071511
0.4318903507350498 0.5681096492650342 0.4361212678193436
0.1211598774256594 0.1237199591421243 0.3715193971295214
0.1237199591418096 0.1237199591421243 0.5007190394077059
0.3944259832125968 0.2267338942132881 0.3722384365378518
0.396986064928747 0.2267338942132881 0.5014380788160363
0.2732661057869374 0.3504538533554123 0.5014380788160545
0.8788401225740747 0.8762800408579197 0.3715193971297819
0.8762800408582192 0.8762800408579197 0.5007190394077905
0.6495461466451566 0.7267338942132882 0.5014380788161391
0.7732661057869374 0.6030139350712078 0.5014380788160363
0.6521062283610122 0.7267338942132882 0.3722384365381305
0.1237199591418096 0.1211598774260437 0.6291996422778698
0.2732661057869374 0.3478937716393318 0.6299186816862185
0.8762800408582192 0.8788401225739897 0.6291996422779363
0.7732661057869374 0.6055740167872778 0.6299186816861821
0.3711598774267196 0.8788401225740765 0.8514333106595964
0.5000000000007865 0.8762800408580886 0.8514333106595964
0.408624244948593 0.841375755051746 0.5364760193667475
0.1211598774256594 0.1211598774258049 0.2423197548511614
0.2732661057869374 0.347893771639093 0.3722384365376946
0.8788401225740747 0.8788401225742284 0.2423197548514764
0.7732661057869374 0.6055740167875165 0.3722384365377308
0.1211598774253929 0.2423197548515006 0.1211598774255021
0.2423197548510522 0.1211598774256957 0.1211598774256593
0.3944259832123302 0.3478937716389838 0.2510785591121925
0.7576802451486258 0.878840122574305 0.121159877425938
0.878840122574551 0.7576802451485334 0.1211598774255384
0.6521062283614883 0.605574016787593 0.2510785591121925
0.2423197548522828 0.8788401225740765 0.878840122574026
0.1211598774262391 0.7576802451484201 0.8788401225740977
0.1211598774260437 0.8788401225743437 0.7576802451481237
0.2797841223741562 0.841375755051746 0.5638828312811771
0.1586242449481124 0.7202158776260897 0.5638828312812488
0.1211598774258981 0.1211598774260437 0.7576802451478947
0.3944259832128355 0.2267338942132881 0.6299186816860611
0.8788401225743437 0.8788401225739897 0.7576802451480874
0.6521062283612811 0.7267338942132882 0.6299186816862902
0.1211598774253929 0.2423197548517394 0.878840122574026
0.242319754851291 0.1211598774256957 0.8788401225738687
0.3944259832123302 0.3478937716389838 0.7510785591121925
0.878840122574551 0.7576802451482947 0.8788401225739897
0.7576802451488946 0.878840122574305 0.8788401225740977
0.6521062283614883 0.605574016787593 0.7510785591121925
0.2797841223735053 0.4625356324774417 0.1850427087071511
0.1586242449481124 0.4625356324775509 0.3062025861326532
0.5374643675226634 0.720215877626051 0.1850427087071511
0.5374643675221873 0.841375755051746 0.3062025861330891
0.1211598774253929 0.3711598774261121 0.1507238075649023
0.1586242449481124 0.5913757550521623 0.3357665162720535
0.4176036730840434 0.476733894213866 0.7510785591121925
0.6288401225750315 0.878840122574305 0.8514333106595964
0.5232661057874179 0.7267338942132882 0.6025118697717888
0.3029618122452185 0.591375755052324 0.6850427087071511
0.2732661057869374 0.4767338942137687 0.6025118697717888
0.6288401225739219 0.1237199591419802 0.1211598774255384
0.7576802451479605 0.1211598774260347 0.1211598774255384
0.5232661057866308 0.3504538533552683 0.2510785591121925
0.6521062283606696 0.3478937716393228 0.2510785591121925
0.6521062283611658 0.2267338942132881 0.3722384365377308
0.4176036730840434 0.476733894213866 0.2510785591121925
0.3029618122452185 0.591375755052324 0.1850427087071511
0.628840122573683 0.1237199591419802 0.8788401225739897
0.7576802451477218 0.1211598774260347 0.8788401225739897
0.6521062283609271 0.2267338942132881 0.6299186816861821
0.6521062283606696 0.3478937716393228 0.7510785591121925
0.5232661057866308 0.3504538533552683 0.7510785591121925
0.8788401225737321 0.242319754851694 0.1211598774256593
0.8788401225742284 0.1211598774256594 0.2423197548511977
0.7732661057869374 0.3478937716389475 0.3722384365378518
0.8762800408579197 0.1211598774256594 0.3715193971295032
0.8762800408579197 0.1237199591418096 0.5007190394076877
0.7732661057869374 0.3504538533550977 0.5014380788160363
0.6495461466448571 0.2267338942132881 0.5014380788160363
0.8556624327027836 0.6288401225738013 0.1211598774255384
0.628928538489721 0.4767338942128609 0.2510785591121925
0.1443375672971061 0.5000000000009943 0.1507238075649023
0.8762800408579197 0.1211598774258981 0.6291996422777125
0.7732661057869374 0.3478937716391862 0.6299186816860611
0.8788401225737321 0.2423197548519329 0.8788401225738687
0.8788401225739897 0.1211598774258981 0.7576802451478584
0.8556624327027836 0.6288401225735626 0.8788401225739897
0.628928538489721 0.4767338942128609 0.7510785591121925
0.5232661057865976 0.2267338942132881 0.401802366677092
0.7732661057869374 0.4767338942129483 0.401802366677092
0.5232661057865772 0.2267338942132881 0.6025118697716825
0.7732661057869374 0.4767338942129279 0.6025118697716825
0.1443375672971061 0.5000000000010585 0.8514333106595964
0.1586242449481124 0.5913757550522265 0.5364760193667475
0.4999999999993536 0.1237199591419802 0.1507238075648995
0.4999999999993332 0.1237199591419802 0.85143331065949
0.5349042858063316 0.841375755051746 0.4354022284110978
0.1586242449481124 0.4650957141938702 0.4354022284110132
0.8556624327027836 0.4999999999992331 0.1507238075648995
0.1211598774260437 0.8762800408582192 0.6291996422779726
0.1237199591421243 0.8762800408582192 0.5007190394078087
0.2823442040902367 0.841375755051746 0.4354022284110132
0.1586242449481124 0.7176557959099652 0.4354022284110978
0.8556624327027836 0.4999999999992126 0.85143331065949
0.8556624327027836 0.3711598774252322 0.1211598774256593
0.8556624327027836 0.371159877425471 0.8788401225738687
0.4086242449485288 0.841375755051746 0.3357665162720535
0.4086242449484183 0.7176557959098346 0.1850427087071511
0.5142866776508961 0.5913757550513189 0.1850427087071511
0.3711598774261108 0.8762800408580886 0.1211598774255021
0.242319754852044 0.8788401225740765 0.1211598774255021
0.2797841223743515 0.7202158776258225 0.1850427087071511
0.2797841223739174 0.841375755051746 0.3062025861326532
0.1211598774258049 0.8762800408582192 0.3715193971294488
0.1211598774258049 0.8788401225740747 0.2423197548514401
0.5000000000007223 0.8762800408580886 0.1507238075649023
0.1211598774262391 0.7576802451481512 0.121159877425938
0.1443375672971061 0.6288401225746527 0.121159877425938
0.1586242449481124 0.7202158776258207 0.3062025861330891
0.3711598774255915 0.1237199591419802 0.8788401225738687
0.3711598774253527 0.1237199591419802 0.1211598774256593
0.6288401225743807 0.8762800408580886 0.121159877425938
0.1443375672971061 0.3711598774266217 0.878840122574026
0.1443375672971061 0.6288401225749216 0.8788401225740977

CELLS 197 2167
10 111 314 113 315 316 317 140 318 320 319
10 157 275 153 314 321 322 180 323 325 324
10 235 237 193 314 262 326 327 328 330 329
10 153 275 277 314 322 304 331 324 325 332
10 235 193 195 314 327 226 333 328 329 334
10 111 113 233 315 140 335 336 318 319 337
10 279 275 157 314 303 321 338 339 325 323
10 193 237 197 314 326 340 225 329 330 341
10 74 279 157 314 342 338 343 344 339 323
10 237 75 197 314 345 346 340 330 347 341
10 236 113 280 315 348 349 350 351 319 352
10 277 155 153 314 353 181 331 332 354 324
10 195 239 235 314 355 263 333 334 356 328
10 277 115 155 314 357 358 353 332 359 354
10 239 195 116 314 355 360 361 356 334 362
10 113 236 233 315 348 259 335 319 351 337
10 74 279 314 315 342 339 344 363 364 320
10 75 314 237 315 347 330 345 365 320 366
10 74 273 279 315 367 296 342 363 368 364
10 111 110 113 314 147 143 140 316 369 317
10 111 233 116 314 336 370 139 316 371 362
10 111 233 314 315 336 371 316 318 337 320
10 239 116 233 314 361 370 258 356 362 371
10 113 314 110 315 317 369 143 319 320 372
10 239 233 235 314 258 271 263 356 371 328
10 275 274 277 314 311 300 304 325 373 332
10 71 156 73 314 374 375 91 376 378 377
10 69 74 314 315 103 344 379 380 363 320
10 154 112 114 314 381 132 382 383 385 384
10 198 73 156 314 386 375 387 388 377 378
10 194 198 152 314 221 389 390 391 388 392
10 75 68 197 314 95 393 346 347 394 341
10 69 273 74 315 395 367 103 380 368 363
10 152 196 194 314 396 222 390 392 397 391
10 154 114 196 314 382 398 399 383 384 397
10 116 195 109 314 360 400 136 362 334 401
10 109 111 116 314 146 139 136 401 316 362
10 156 152 198 314 184 389 387 378 392 388
10 71 69 74 314 107 103 90 376 379 344
10 196 152 154 314 396 185 399 397 392 383
10 150 157 153 314 172 180 190 402 323 324
10 193 197 191 314 225 214 228 329 341 403
10 153 155 151 314 181 176 189 324 354 404
10 193 192 195 314 229 218 226 329 405 334
10 110 112 115 314 148 131 144 369 385 359
10 274 110 314 315 406 369 373 407 372 320
10 71 150 156 314 408 173 374 376 402 378
10 154 151 112 314 177 409 381 383 404 385
10 233 235 314 315 271 328 371 337 410 320
10 274 314 275 315 373 325 311 407 320 411
10 197 68 191 314 393 412 214 341 394 403
10 234 236 276 315 267 413 414 415 351 416
10 109 195 192 314 400 218 417 401 334 405
10 236 280 276 315 350 308 413 351 352 416
10 198 68 73 314 418 94 386 388 394 377
10 109 196 114 314 419 398 135 401 397 384
10 71 73 68 314 91 94 108 376 377 394
10 109 114 112 314 135 132 149 401 384 385
10 276 280 274 315 308 299 312 416 352 407
10 234 233 236 315 270 259 267 415 337 351
10 198 191 68 314 213 412 418 388 403 394
10 233 232 235 315 268 272 271 337 420 410
10 274 275 273 315 311 310 309 407 411 368
10 109 192 196 314 417 217 419 401 405 397
10 194 191 198 314 231 213 221 391 403 388
10 152 156 150 314 184 173 187 392 378 402
10 111 109 110 314 146 145 147 316 401 369
10 194 196 192 314 222 217 230 391 397 405
10 151 154 152 314 177 185 188 404 383 392
10 71 68 69 314 108 104 107 376 394 379
10 70 69 68 315 106 104 105 421 380 422
10 112 110 109 314 148 145 149 385 369 401
10 69 314 68 315 379 394 104 380 320 422
10 153 151 150 314 189 186 190 324 404 402
10 193 191 192 314 228 227 229 329 403 405
10 151 152 150 314 188 187 186 404 392 402
10 192 191 194 314 227 231 230 405 403 391
10 234 232 233 315 269 268 270 415 420 337
10 273 276 274 315 313 312 309 368 416 407
10 72 70 238 315 99 423 424 425 421 426
10 234 63 238 276 265 245 266 414 305 427
10 53 152 194 198 183 390 219 201 389 221
10 157 275 48 153 321 302 160 180 322 178
10 58 193 235 237 224 327 260 242 326 262
10 153 49 277 275 179 289 331 322 301 304
10 194 152 54 196 390 182 220 222 396 207
10 236 276 64 234 413 306 251 267 414 264
10 193 195 59 235 226 210 223 327 333 261
10 278 238 63 276 428 245 286 307 427 305
10 152 53 156 198 183 163 184 389 201 387
10 275 157 48 279 321 160 302 303 338 283
10 237 58 193 197 242 224 326 340 204 225
10 276 236 64 280 413 251 306 308 350 292
10 195 239 59 235 355 248 210 333 263 261
10 49 277 155 153 289 353 166 179 331 181
10 152 54 196 154 182 207 396 185 169 399
10 234 276 238 315 414 427 266 415 416 426
10 238 70 232 315 423 429 255 426 421 420
10 69 72 278 315 102 430 431 380 425 432
10 154 112 29 114 381 129 167 382 132 121
10 115 155 112 28 358 433 131 117 165 130
10 238 72 19 70 424 86 244 423 99 96
10 156 9 71 73 162 88 374 375 80 91
10 157 8 74 71 158 76 343 434 89 90
10 18 75 237 70 84 345 240 97 98 435
10 238 276 278 315 427 307 428 426 416 432
10 115 44 110 277 119 141 144 357 287 436
10 116 34 109 195 124 133 136 360 208 400
10 110 113 280 43 143 349 437 142 128 291
10 114 196 109 33 398 419 135 122 206 134
10 197 75 14 68 346 83 203 393 95 92
10 198 68 13 73 418 93 199 386 94 81
10 23 69 72 278 101 102 87 284 431 430
10 69 278 273 315 431 295 395 380 432 368
10 29 151 112 154 175 409 129 167 177 381
10 155 151 112 28 176 409 433 165 174 130
10 71 150 9 156 408 170 88 374 173 162
10 232 238 19 70 255 244 252 429 423 96
10 8 157 150 71 158 172 171 89 434 408
10 237 232 18 70 254 253 240 435 429 97
10 238 278 72 315 428 430 424 426 432 425
10 69 70 72 315 106 99 102 380 421 425
10 274 110 44 277 406 141 298 300 436 287
10 34 192 109 195 216 417 133 208 218 400
10 110 280 274 43 437 299 406 142 291 297
10 196 192 109 33 217 417 419 206 215 134
10 191 197 14 68 214 203 211 412 393 92
10 13 191 68 198 212 412 93 199 213 418
10 23 69 278 273 101 431 284 294 395 295
10 279 0 74 157 281 77 342 338 159 343
10 5 196 154 114 205 399 168 120 398 382
10 280 236 7 113 350 250 290 349 348 126
10 155 4 115 277 164 118 358 353 288 357
10 278 72 3 238 430 85 285 428 424 243
10 197 237 2 75 340 241 202 346 345 82
10 195 116 6 239 360 123 209 355 361 246
10 1 156 198 73 161 387 200 79 375 386
10 9 8 150 71 11 171 170 88 89 408
10 18 232 19 70 253 252 21 97 429 96
10 151 112 28 29 409 130 174 175 129 31
10 39 38 111 233 41 138 137 257 256 336
10 59 193 235 58 223 327 261 61 224 260
10 54 152 194 53 182 390 220 56 183 219
10 276 234 63 64 414 265 305 306 264 66
10 153 48 49 275 178 51 179 322 302 301
10 157 279 0 48 338 281 159 160 283 50
10 237 2 58 197 241 60 242 340 202 204
10 277 155 4 49 353 164 288 289 166 52
10 3 278 238 63 285 428 243 65 286 245
10 196 54 5 154 207 57 205 399 169 168
10 239 6 195 59 246 209 355 248 62 210
10 7 64 236 280 67 251 250 290 292 350
10 156 53 1 198 163 55 161 387 201 200
10 14 13 191 68 16 212 211 92 93 412
10 69 23 24 273 101 26 100 395 294 293
10 113 236 7 39 348 250 126 127 249 42
10 5 196 114 33 205 398 120 35 206 122
10 154 29 5 114 167 32 168 382 121 120
10 7 280 113 43 290 349 126 45 291 128
10 4 44 115 277 47 119 118 288 287 357
10 155 115 4 28 358 118 164 165 117 30
10 116 6 34 195 123 37 124 360 209 208
10 116 38 6 239 125 40 123 361 247 246
10 33 192 109 34 215 417 134 36 216 133
10 274 110 43 44 406 142 297 298 141 46
10 3 23 72 278 25 87 85 285 284 430
10 72 19 3 238 86 22 85 424 244 243
10 198 13 1 73 199 15 200 386 81 79
10 279 74 0 24 342 77 281 282 78 27
10 0 8 74 157 10 76 77 159 158 343
10 1 9 156 73 12 162 161 79 80 375
10 75 237 2 18 345 241 82 84 240 20
10 2 197 75 14 202 346 82 17 203 83
10 234 238 232 315 266 255 269 415 426 420
10 273 278 276 315 295 307 313 368 432 416
10 237 315 235 232 366 410 262 254 420 272
10 235 315 237 314 410 366 262 328 320 330
10 315 279 275 273 364 303 411 368 296 310
10 315 275 279 314 411 303 364 320 325 339
10 237 70 315 232 435 421 366 254 429 420
10 315 70 237 75 421 435 366 365 98 345
10 157 71 314 150 434 376 323 172 408 402
10 314 71 157 74 376 434 323 344 90 343
10 74 273 24 279 367 293 78 342 296 282
10 24 273 74 69 293 367 78 100 395 103
10 155 112 314 115 433 385 354 358 131 359
10 314 112 155 151 385 433 354 404 409 176
10 116 233 38 239 370 256 125 361 258 247
10 38 233 116 111 256 370 125 138 336 139
10 233 113 39 236 335 127 257 259 348 249
10 233 39 113 111 257 127 335 336 137 140
10 277 110 314 274 436 369 332 300 406 373
10 277 314 110 115 332 369 436 357 359 144
10 280 110 315 113 437 372 352 349 143 319
10 315 110 280 274 372 437 352 407 406 299
10 68 315 75 70 422 365 95 105 421 98
10 75 315 68 314 365 422 95 347 320 394

CELL_TYPES 197
24
24
24
24
24
24
24
24
24
24
24
24
24
24
24
24
24
24
24
24
24
24
24
24
24
24
24
24
24
24
24
24
24
24
24
24
24
24
24
24
24
24
24
24
24
24
24
24
24
24
24
24
24
24
24
24
24
24
24
24
24
24
24
24
24
24
24
24
24
24
24
24
24
24
24
24
24
24
24
24
24
24
24
24
24
24
24
24
24
24
24
24
24
24
24
24
24
24
24
24
24
24
24
24
24
24
24
24
24
24
24
24
24
24
24
24
24
24
24
24
24
24
24
24
24
24
24
24
24
24
24
24
24
24
24
24
24
24
24
24
24
24
24
24
24
24
24
24
24
24
24
24
24
24
24
24
24
24
24
24
24
24
24
24
24
24
24
24
24
24
24
24
24
24
24
24
24
24
24
24
24
24
24
24
24
24
24
24
24
24
24
24
24
24
24
24
24

CELL_DATA 197
SCALARS CellEntityIds int 1
LOOKUP_TABLE default
1
1
1
1
1
1
1
1
1
1
1
1
1
1
1
1
1
1
1
1
1
1
1
1
1
1
1
1
1
1
1
1
1
1
1
1
1
1
1
1
1
1
1
1
1
1
1
1
1
1
1
1
1
1
1
1
1
1
1
1
1
1
1
1
1
1
1
1
1
1
1
1
1
1
1
1
1
1
1
1
1
1
1
1
1
1
1
1
1
1
1
1
1
1
1
1
1
1
1
1
1
1
1
1
1
1
1
1
1
1
1
1
1
1
1
1
1
1
1
1
1
1
1
1
1
1
1
1
1
1
1
1
1
1
1
1
1
1
1
1
1
1
1
1
1
1
1
1
1
1
1
1
1
1
1
1
1
1
1
1
1
1
1
1
1
1
1
1
1
1
1
1
1
1
1
1
1
1
1
1
1
1
1
1
1
1
1
1
1
1
1
1
1
1
1
1
1
