# vtk DataFile Version 2.0
3D, Created by Gmsh 4.12.2 
ASCII
DATASET UNSTRUCTURED_GRID
POINTS 231 double
0 0 0
1 0 0
1 1 0
0 1 0
0 0 1
1 0 1
1 1 1
0 1 1
0.499999999998694 0 0
0.2499999999994194 0 0
0.749999999999347 0 0
1 0.499999999998694 0
1 0.2499999999994194 0
1 0.749999999999347 0
0.5000000000020591 1 0
0.7500000000009891 1 0
0.2500000000010296 1 0
0 0.5000000000020591 0
0 0.7500000000009891 0
0 0.2500000000010296 0
0.499999999998694 0 1
0.2499999999994194 0 1
0.749999999999347 0 1
1 0.499999999998694 1
1 0.2499999999994194 1
1 0.749999999999347 1
0.5000000000020591 1 1
0.7500000000009891 1 1
0.2500000000010296 1 1
0 0.5000000000020591 1
0 0.7500000000009891 1
0 0.2500000000010296 1
0 0 0.499999999998694
0 0 0.2499999999994194
0 0 0.749999999999347
1 0 0.499999999998694
1 0 0.2499999999994194
1 0 0.749999999999347
1 1 0.499999999998694
1 1 0.2499999999994194
1 1 0.749999999999347
0 1 0.499999999998694
0 1 0.2499999999994194
0 1 0.749999999999347
0.2937500000004586 0.7062500000004164 0
0.3749999999995794 0.3750000000004207 0
0.6479166666669072 0.6437499999998402 0
0.7187499999993462 0.2812499999995109 0
0.4374999999991367 0.1875000000002103 0
0.1874999999997897 0.1875000000002103 0
0.1874999999997897 0.4375000000012399 0
0.8593749999996732 0.1406249999997554 0
0.6093749999990201 0.1406249999997554 0
0.8593749999996732 0.3906249999991024 0
0.8239583333334536 0.8218749999999201 0
0.8239583333334536 0.5718749999992671 0
0.5739583333344831 0.8218749999999201 0
0.1468750000002293 0.8531250000002082 0
0.3968750000012589 0.8531250000002082 0
0.1468750000002293 0.6031250000012378 0
0.5468749999994629 0.3281249999999658 0
0.6833333333331266 0.4624999999996755 0
0.4708333333336829 0.6750000000001283 0
0.3343750000000191 0.5406250000004185 0
0.5114583333332433 0.5093750000001305 0
0.2937500000004586 0.7062500000004164 1
0.3749999999995794 0.3750000000004207 1
0.6479166666669072 0.6437499999998402 1
0.7187499999993462 0.2812499999995109 1
0.4374999999991367 0.1875000000002103 1
0.1874999999997897 0.1875000000002103 1
0.1874999999997897 0.4375000000012399 1
0.8593749999996732 0.1406249999997554 1
0.6093749999990201 0.1406249999997554 1
0.8593749999996732 0.3906249999991024 1
0.8239583333334536 0.8218749999999201 1
0.8239583333334536 0.5718749999992671 1
0.5739583333344831 0.8218749999999201 1
0.1468750000002293 0.8531250000002082 1
0.3968750000012589 0.8531250000002082 1
0.1468750000002293 0.6031250000012378 1
0.5468749999994629 0.3281249999999658 1
0.6833333333331266 0.4624999999996755 1
0.4708333333336829 0.6750000000001283 1
0.3343750000000191 0.5406250000004185 1
0.5114583333332433 0.5093750000001305 1
0.73861151603436 0 0.73861151603436
0.6249999999999999 0 0.3749999999993471
0.3574769193389171 0 0.6491435860054751
0.2812500000004489 0 0.2812500000004489
0.3906249999995715 0 0.1406250000002245
0.1406250000002245 0 0.1406250000002245
0.1406250000002245 0 0.3906249999995715
0.8125 0 0.1874999999996735
0.562499999999347 0 0.1874999999996735
0.8125 0 0.4374999999990206
0.1787384596694586 0 0.8245717930027375
0.4287384596688055 0 0.8245717930027375
0.1787384596694586 0 0.5745717930020845
0.619305758016527 0 0.86930575801718
0.86930575801718 0 0.86930575801718
0.86930575801718 0 0.619305758016527
0.4531250000002244 0 0.328124999999898
0.5480442176866386 0 0.6938775510199175
0.319363459669683 0 0.465196793002962
0.6818057580171799 0 0.5568057580168535
0.4912384596694585 0 0.512071793002411
1 0.73861151603436 0.73861151603436
1 0.6249999999999999 0.3749999999993471
1 0.3574769193389171 0.6491435860054751
1 0.2812500000004489 0.2812500000004489
1 0.3906249999995715 0.1406250000002245
1 0.1406250000002245 0.1406250000002245
1 0.1406250000002245 0.3906249999995715
1 0.8125 0.1874999999996735
1 0.562499999999347 0.1874999999996735
1 0.8125 0.4374999999990206
1 0.1787384596694586 0.8245717930027375
1 0.4287384596688055 0.8245717930027375
1 0.1787384596694586 0.5745717930020845
1 0.619305758016527 0.86930575801718
1 0.86930575801718 0.86930575801718
1 0.86930575801718 0.619305758016527
1 0.4531250000002244 0.328124999999898
1 0.5480442176866386 0.6938775510199175
1 0.319363459669683 0.465196793002962
1 0.6818057580171799 0.5568057580168535
1 0.4912384596694585 0.512071793002411
0.2937500000008058 1 0.7062499999993543
0.3750000000000001 1 0.3749999999991588
0.6479166666670614 1 0.6437499999996721
0.718749999999504 1 0.2812500000008255
0.6093750000007816 1 0.1406250000004127
0.859374999999752 1 0.1406250000004127
0.859374999999752 1 0.3906249999997597
0.1875000000000001 1 0.1874999999995794
0.4375000000010296 1 0.1874999999995794
0.1875000000000001 1 0.4374999999989264
0.8239583333335307 1 0.821874999999836
0.5739583333345603 1 0.821874999999836
0.8239583333335307 1 0.571874999999183
0.3968750000014324 1 0.8531249999996772
0.1468750000004029 1 0.8531249999996772
0.1468750000004029 1 0.6031249999990241
0.546874999999752 1 0.3281249999999921
0.4708333333339336 1 0.6749999999995132
0.6833333333332827 1 0.4625000000002488
0.3343750000004029 1 0.5406249999992566
0.5114583333335307 1 0.5093749999994155
0 0.2937500000008058 0.7062499999993543
0 0.3750000000000001 0.3749999999991588
0 0.6479166666670614 0.6437499999996721
0 0.718749999999504 0.2812500000008256
0 0.1875 0.1874999999995794
0 0.4375000000010296 0.1874999999995794
0 0.1875 0.4374999999989264
0 0.6093750000007816 0.1406250000004128
0 0.859374999999752 0.1406250000004128
0 0.859374999999752 0.3906249999997597
0 0.3968750000014324 0.8531249999996772
0 0.1468750000004029 0.8531249999996772
0 0.1468750000004029 0.6031249999990241
0 0.8239583333335307 0.821874999999836
0 0.5739583333345603 0.821874999999836
0 0.8239583333335307 0.571874999999183
0 0.546874999999752 0.3281249999999922
0 0.4708333333339336 0.6749999999995132
0 0.3343750000004029 0.5406249999992565
0 0.6833333333332827 0.4625000000002488
0 0.5114583333335307 0.5093749999994155
0.5078335741812307 0.5130559569684701 0.5130559569684711
0.5381134596691317 0.1406249999997554 0.8245717930027375
0.7286807580168531 0.1406249999997554 0.86930575801718
0.4326552467600739 0.256527978484235 0.581099771486973
0.6232225451077953 0.256527978484235 0.6258337365014155
0.6132917870902884 0.3971529784839904 0.7565279784842356
0.8593749999996732 0.2812499999999799 0.1406250000002245
0.8593749999996732 0.4531249999997554 0.1874999999996735
0.6132917870902884 0.3971529784839904 0.2565279784842355
0.7539167870906154 0.5690279784842349 0.4440279784839091
0.7539167870906154 0.3971529784844595 0.39715297848446
0.1468750000002293 0.7124999999999602 0.1406250000004128
0.1468750000002293 0.5406250000002082 0.1874999999995794
0.4007917870908446 0.6096529784844432 0.2565279784842355
0.2539167870906153 0.444027978484235 0.4440279784838149
0.2539167870906153 0.615902978483987 0.3971529784846483
0.8593749999996732 0.319363459669214 0.8245717930027375
0.86930575801718 0.1787384596694586 0.6938775510199175
0.7539167870906154 0.4352664381536936 0.581099771486973
0.671874999999673 0.1406249999997554 0.1874999999996735
0.8125 0.1406250000002245 0.328124999999898
0.5664167870906153 0.256527978484235 0.4440279784839091
0.4708333333338565 0.8218749999999201 0.8531249999996772
0.2937500000006322 0.8531250000002082 0.8531249999996772
0.4007917870910182 0.756527978484235 0.6096529784839126
0.4007917870908446 0.6096529784844432 0.7565279784842356
0.5778751204240689 0.5784029784841551 0.7565279784842356
0.3343750000002293 0.8531250000002082 0.1874999999995794
0.1875000000000001 0.859374999999752 0.3281249999999922
0.4414167870906154 0.756527978484235 0.4440279784838149
0.1468750000004029 0.8239583333335307 0.6749999999995132
0.1468750000002293 0.6770833333337389 0.821874999999836
0.2539167870906153 0.5804863118177657 0.5784029784840716
0.8239583333334536 0.63437499999992 0.1874999999996735
0.5778751204240689 0.5784029784841551 0.2565279784842355
0.3662384596692483 0.1875000000002103 0.8245717930027375
0.441416787090405 0.4440279784844454 0.7565279784842356
0.1406250000002245 0.1875 0.3281249999998038
0.1787384596694586 0.1875 0.5120717930023169
0.3945417870908398 0.256527978484235 0.39715297848446
0.8125 0.1787384596694586 0.512071793002411
0.6479166666669842 0.8218749999999201 0.821874999999836
0.577875120424146 0.756527978484235 0.5784029784840716
0.3281250000000142 0.1875000000002103 0.1406250000002245
0.1874999999997897 0.3750000000002104 0.1874999999995794
0.441416787090405 0.4440279784844454 0.2565279784842355
0.8239583333334536 0.5006134596693786 0.8245717930027375
0.8239583333334536 0.6911807580171001 0.86930575801718
0.7539167870906154 0.625833736501415 0.6258337365014155
0.1787384596694586 0.1468750000004029 0.6776967930024147
0.2539167870906153 0.4034029784846379 0.6096529784839126
0.4999999999997897 0.1875000000002103 0.1874999999996735
0.1875000000000001 0.8239583333335307 0.5093749999994155
0.5114583333334537 0.8218749999999201 0.1874999999995794
0.6833333333332056 0.8218749999999201 0.1406250000004127
0.6132917870903674 0.756527978484235 0.3971529784846483
0.8239583333335307 0.86930575801718 0.6911807580170161
0.859374999999752 0.8125 0.3281250000000863
0.1874999999997897 0.3343750000006132 0.8531249999996772
0.1874999999997897 0.511458333333741 0.821874999999836
0.8239583333335307 0.8125 0.5093749999995096

CELLS 100 1100
10 88 68 86 170 171 172 103 173 175 174
10 47 110 108 170 176 123 177 178 180 179
10 44 152 150 170 181 165 182 183 185 184
10 68 109 86 170 186 187 172 175 188 174
10 47 87 110 170 189 190 176 178 191 180
10 128 67 65 170 192 83 193 194 196 195
10 44 129 152 170 197 198 181 183 199 185
10 151 128 65 170 200 193 201 202 194 195
10 108 46 47 170 203 61 177 179 204 178
10 88 66 68 170 205 81 171 173 206 175
10 88 89 150 170 104 207 208 173 209 184
10 68 20 88 86 73 97 171 172 99 103
10 109 87 86 170 210 105 187 188 191 174
10 128 130 67 170 145 211 192 194 212 196
10 109 110 87 170 125 190 210 188 180 191
10 89 45 150 170 213 214 207 209 215 184
10 107 109 67 170 124 216 217 218 188 196
10 44 150 45 170 182 214 63 183 184 215
10 128 65 67 26 193 83 192 141 79 77
10 150 149 88 170 167 219 208 184 220 173
10 68 67 109 170 82 216 186 175 196 188
10 89 87 45 170 102 221 213 209 191 215
10 129 151 152 170 222 168 198 199 202 185
10 47 45 87 170 60 221 189 178 215 191
10 131 129 46 170 144 223 224 225 199 204
10 67 130 107 170 211 226 217 196 212 218
10 131 46 108 170 224 203 227 225 204 179
10 44 46 129 170 62 223 197 183 204 199
10 149 66 88 170 228 205 219 220 206 173
10 149 151 66 170 166 229 228 220 202 206
10 130 108 107 170 230 126 226 212 179 218
10 130 131 108 170 146 227 230 212 225 179
10 44 17 150 152 59 154 182 181 156 165
10 66 151 65 170 229 201 84 206 202 195
10 128 151 129 170 200 222 147 194 202 199
10 86 87 88 170 105 106 103 174 191 173
10 88 87 89 170 106 102 104 173 191 209
10 47 46 45 170 61 64 60 178 204 215
10 26 67 128 130 77 192 141 139 211 145
10 150 152 151 170 165 168 169 184 185 202
10 66 20 88 68 69 97 205 81 73 171
10 107 108 109 170 126 127 124 218 179 188
10 45 0 89 150 49 91 213 214 153 207
10 109 108 110 170 127 123 125 188 179 180
10 32 89 150 88 92 207 155 98 104 208
10 87 110 109 35 190 125 210 95 113 119
10 67 23 109 107 76 118 216 217 120 124
10 109 86 87 35 187 105 210 119 101 95
10 45 46 44 170 64 62 63 215 204 183
10 130 6 67 107 138 75 211 226 121 217
10 108 131 2 46 227 133 114 203 224 54
10 23 109 68 67 118 186 74 76 216 82
10 14 131 129 46 132 144 136 56 224 223
10 149 150 151 170 167 169 166 220 184 202
10 152 129 41 151 198 137 158 168 222 164
10 131 130 108 38 146 230 227 134 140 116
10 88 149 4 66 219 160 96 205 228 70
10 130 107 108 38 226 126 230 140 122 116
10 14 129 44 46 136 197 58 56 223 62
10 149 151 29 66 166 163 159 228 229 71
10 66 67 68 170 85 82 81 206 196 175
10 129 131 130 170 144 146 148 199 225 212
10 17 150 45 44 154 214 50 59 182 63
10 149 32 150 88 161 155 167 219 98 208
10 87 47 110 1 189 176 190 93 51 112
10 151 65 29 66 201 80 163 229 84 71
10 3 44 129 152 57 197 135 157 181 198
10 151 128 7 65 200 142 162 201 193 78
10 47 45 8 87 60 48 52 189 221 94
10 89 8 45 87 90 48 213 102 94 221
10 151 129 41 128 222 137 164 200 147 143
10 68 86 109 5 172 187 186 72 100 117
10 66 65 67 170 84 83 85 206 195 196
10 128 129 130 170 147 148 145 194 199 212
10 150 45 0 17 214 49 153 154 50 19
10 67 26 6 130 77 27 75 211 139 138
10 46 2 108 11 54 114 203 55 13 115
10 20 88 4 66 97 96 21 69 205 70
10 8 47 87 1 52 189 94 10 51 93
10 0 89 8 45 91 90 9 49 213 48
10 35 87 110 1 95 190 113 36 93 112
10 129 41 3 152 137 42 135 198 158 157
10 108 131 38 2 227 134 116 114 133 39
10 0 32 89 150 33 92 91 153 155 207
10 86 109 5 35 187 117 100 101 119 37
10 65 7 151 29 78 162 201 80 30 163
10 5 109 68 23 117 186 72 24 118 74
10 29 4 149 66 31 160 159 71 70 228
10 44 3 129 14 57 135 197 58 16 136
10 23 67 6 107 76 75 25 120 217 121
10 107 130 6 38 226 138 121 122 140 40
10 41 151 128 7 164 200 143 43 162 142
10 14 2 131 46 15 133 132 56 54 224
10 149 4 32 88 160 34 161 219 96 98
10 86 68 20 5 172 73 99 100 72 22
10 128 7 65 26 142 78 193 141 28 79
10 11 110 47 1 111 176 53 12 112 51
10 17 44 3 152 59 57 18 156 181 157
10 47 108 11 46 177 115 53 61 203 55
10 47 11 108 110 53 115 177 176 111 123

CELL_TYPES 100
24
24
24
24
24
24
24
24
24
24
24
24
24
24
24
24
24
24
24
24
24
24
24
24
24
24
24
24
24
24
24
24
24
24
24
24
24
24
24
24
24
24
24
24
24
24
24
24
24
24
24
24
24
24
24
24
24
24
24
24
24
24
24
24
24
24
24
24
24
24
24
24
24
24
24
24
24
24
24
24
24
24
24
24
24
24
24
24
24
24
24
24
24
24
24
24
24
24
24
24

CELL_DATA 100
SCALARS CellEntityIds int 1
LOOKUP_TABLE default
1
1
1
1
1
1
1
1
1
1
1
1
1
1
1
1
1
1
1
1
1
1
1
1
1
1
1
1
1
1
1
1
1
1
1
1
1
1
1
1
1
1
1
1
1
1
1
1
1
1
1
1
1
1
1
1
1
1
1
1
1
1
1
1
1
1
1
1
1
1
1
1
1
1
1
1
1
1
1
1
1
1
1
1
1
1
1
1
1
1
1
1
1
1
1
1
1
1
1
1
