# vtk DataFile Version 2.0
3D, Created by Gmsh 4.12.2 
ASCII
DATASET UNSTRUCTURED_GRID
POINTS 63 double
0 0 0
1 0 0
1 1 0
0 1 0
0 0 1
1 0 1
1 1 1
0 1 1
0.4999999999986718 0 0
1 0.4999999999986718 0
0.5000000000013305 1 0
0 0.5000000000013305 0
0.4999999999986718 0 1
1 0.4999999999986718 1
0.5000000000013305 1 1
0 0.5000000000013305 1
0 0 0.4999999999986718
1 0 0.4999999999986718
1 1 0.4999999999986718
0 1 0.4999999999986718
0.5 0.5 0
0.75 0.25 0
0.25 0.25 0
0.25 0.75 0
0.75 0.75 0
0.5 0.5 1
0.75 0.25 1
0.25 0.25 1
0.25 0.75 1
0.75 0.75 1
0.5 0 0.5
0.75 0 0.25
0.25 0 0.25
0.25 0 0.75
0.75 0 0.75
1 0.5 0.5
1 0.75 0.25
1 0.25 0.25
1 0.25 0.75
1 0.75 0.75
0.5 1 0.5
0.25 1 0.25
0.75 1 0.25
0.75 1 0.75
0.25 1 0.75
0 0.5 0.5
0 0.25 0.25
0 0.75 0.25
0 0.25 0.75
0 0.75 0.75
0.5 0.75 0.25
0.25 0.75 0.5
0.25 0.5 0.25
0.75 0.5 0.25
0.5 0.5 0.5
0.75 0.75 0.5
0.25 0.25 0.5
0.25 0.5 0.75
0.5 0.25 0.75
0.75 0.25 0.5
0.75 0.5 0.75
0.5 0.25 0.25
0.5 0.75 0.75

CELLS 24 264
10 40 45 20 35 51 52 50 55 54 53
10 30 45 25 35 56 57 58 59 54 60
10 30 20 45 35 61 52 56 59 53 54
10 45 40 25 35 51 62 57 54 55 60
10 45 4 0 30 48 16 46 56 33 32
10 25 4 30 5 27 33 58 26 12 34
10 7 25 4 45 28 27 15 49 57 48
10 7 3 40 45 19 41 44 49 47 51
10 3 0 20 45 11 22 23 47 46 52
10 40 7 25 6 44 28 62 43 14 29
10 3 40 20 2 41 50 23 10 42 24
10 6 5 25 35 13 26 29 39 38 60
10 35 5 30 1 38 34 59 37 17 31
10 0 20 30 1 22 61 32 8 21 31
10 2 6 40 35 18 43 42 36 39 55
10 35 20 2 1 53 24 36 37 21 9
10 45 0 20 30 46 22 52 56 32 61
10 25 4 45 30 27 48 57 58 33 56
10 25 7 40 45 28 44 62 57 49 51
10 20 40 3 45 50 41 23 52 51 47
10 5 30 25 35 34 58 26 38 59 60
10 40 20 2 35 50 24 42 55 53 36
10 25 40 6 35 62 43 29 60 55 39
10 35 30 20 1 59 61 53 37 31 21

CELL_TYPES 24
24
24
24
24
24
24
24
24
24
24
24
24
24
24
24
24
24
24
24
24
24
24
24
24

CELL_DATA 24
SCALARS CellEntityIds int 1
LOOKUP_TABLE default
1
1
1
1
1
1
1
1
1
1
1
1
1
1
1
1
1
1
1
1
1
1
1
1
