# vtk DataFile Version 2.0
3D, Created by Gmsh 4.12.2 
ASCII
DATASET UNSTRUCTURED_GRID
POINTS 4096 double
0 0 0
1 0 0
1 1 0
0 1 0
0 0 1
1 0 1
1 1 1
0 1 1
0.1999999999995569 0 0
0.3999999999989731 0 0
0.599999999998945 0 0
0.7999999999994725 0 0
0.06666666666653098 0 0
0.1333333333330852 0 0
0.266666666666029 0 0
0.3333333333325011 0 0
0.4666666666654454 0 0
0.5333333333321028 0 0
0.6666666666657876 0 0
0.7333333333326301 0 0
0.866666666666315 0 0
0.9333333333331575 0 0
1 0.1999999999995569 0
1 0.3999999999989731 0
1 0.599999999998945 0
1 0.7999999999994725 0
1 0.06666666666653098 0
1 0.1333333333330852 0
1 0.266666666666029 0
1 0.3333333333325011 0
1 0.4666666666654454 0
1 0.5333333333321028 0
1 0.6666666666657876 0
1 0.7333333333326301 0
1 0.866666666666315 0
1 0.9333333333331575 0
0.8 1 0
0.6000000000013874 1 0
0.400000000001665 1 0
0.2000000000008325 1 0
0.9333333333332948 1 0
0.8666666666666025 1 0
0.7333333333338425 1 0
0.6666666666676212 1 0
0.533333333335025 1 0
0.4666666666684086 1 0
0.3333333333347208 1 0
0.2666666666677766 1 0
0.1333333333338883 1 0
0.06666666666694421 1 0
0 0.8 0
0 0.6000000000013874 0
0 0.400000000001665 0
0 0.2000000000008325 0
0 0.9333333333332948 0
0 0.8666666666666025 0
0 0.7333333333338425 0
0 0.6666666666676212 0
0 0.533333333335025 0
0 0.4666666666684086 0
0 0.3333333333347208 0
0 0.2666666666677766 0
0 0.1333333333338883 0
0 0.06666666666694421 0
0.1999999999995569 0 1
0.3999999999989731 0 1
0.599999999998945 0 1
0.7999999999994725 0 1
0.06666666666653098 0 1
0.1333333333330852 0 1
0.266666666666029 0 1
0.3333333333325011 0 1
0.4666666666654454 0 1
0.5333333333321028 0 1
0.6666666666657876 0 1
0.7333333333326301 0 1
0.866666666666315 0 1
0.9333333333331575 0 1
1 0.1999999999995569 1
1 0.3999999999989731 1
1 0.599999999998945 1
1 0.7999999999994725 1
1 0.06666666666653098 1
1 0.1333333333330852 1
1 0.266666666666029 1
1 0.3333333333325011 1
1 0.4666666666654454 1
1 0.5333333333321028 1
1 0.6666666666657876 1
1 0.7333333333326301 1
1 0.866666666666315 1
1 0.9333333333331575 1
0.8 1 1
0.6000000000013874 1 1
0.400000000001665 1 1
0.2000000000008325 1 1
0.9333333333332948 1 1
0.8666666666666025 1 1
0.7333333333338425 1 1
0.6666666666676212 1 1
0.533333333335025 1 1
0.4666666666684086 1 1
0.3333333333347208 1 1
0.2666666666677766 1 1
0.1333333333338883 1 1
0.06666666666694421 1 1
0 0.8 1
0 0.6000000000013874 1
0 0.400000000001665 1
0 0.2000000000008325 1
0 0.9333333333332948 1
0 0.8666666666666025 1
0 0.7333333333338425 1
0 0.6666666666676212 1
0 0.533333333335025 1
0 0.4666666666684086 1
0 0.3333333333347208 1
0 0.2666666666677766 1
0 0.1333333333338883 1
0 0.06666666666694421 1
0 0 0.1999999999995569
0 0 0.3999999999989731
0 0 0.599999999998945
0 0 0.7999999999994725
0 0 0.06666666666653098
0 0 0.1333333333330852
0 0 0.266666666666029
0 0 0.3333333333325011
0 0 0.4666666666654454
0 0 0.5333333333321028
0 0 0.6666666666657876
0 0 0.7333333333326301
0 0 0.866666666666315
0 0 0.9333333333331575
1 0 0.1999999999995569
1 0 0.3999999999989731
1 0 0.599999999998945
1 0 0.7999999999994725
1 0 0.06666666666653098
1 0 0.1333333333330852
1 0 0.266666666666029
1 0 0.3333333333325011
1 0 0.4666666666654454
1 0 0.5333333333321028
1 0 0.6666666666657876
1 0 0.7333333333326301
1 0 0.866666666666315
1 0 0.9333333333331575
1 1 0.1999999999995569
1 1 0.3999999999989731
1 1 0.599999999998945
1 1 0.7999999999994725
1 1 0.06666666666653098
1 1 0.1333333333330852
1 1 0.266666666666029
1 1 0.3333333333325011
1 1 0.4666666666654454
1 1 0.5333333333321028
1 1 0.6666666666657876
1 1 0.7333333333326301
1 1 0.866666666666315
1 1 0.9333333333331575
0 1 0.1999999999995569
0 1 0.3999999999989731
0 1 0.599999999998945
0 1 0.7999999999994725
0 1 0.06666666666653098
0 1 0.1333333333330852
0 1 0.266666666666029
0 1 0.3333333333325011
0 1 0.4666666666654454
0 1 0.5333333333321028
0 1 0.6666666666657876
0 1 0.7333333333326301
0 1 0.866666666666315
0 1 0.9333333333331575
0.199999999999812 0.2000000000005774 0
0.2000000000000672 0.4000000000011267 0
0.2000000000003223 0.6000000000008988 0
0.2000000000005774 0.7999999999998945 0
0.3999999999995115 0.2000000000003223 0
0.4000000000000499 0.4000000000005882 0
0.4000000000005882 0.6000000000004103 0
0.4000000000011267 0.7999999999997891 0
0.5999999999994335 0.2000000000000672 0
0.599999999999922 0.4000000000000499 0
0.6000000000004105 0.5999999999999218 0
0.6000000000008988 0.7999999999996834 0
0.7999999999995778 0.1999999999998121 0
0.7999999999996834 0.3999999999995115 0
0.7999999999997889 0.5999999999994335 0
0.7999999999998946 0.7999999999995779 0
0.199999999999642 0.06666666666685914 0
0.199999999999727 0.1333333333337183 0
0.133333333333208 0.2000000000006625 0
0.06666666666660401 0.2000000000007475 0
0.06666666666655532 0.06666666666691584 0
0.1333333333331262 0.06666666666688749 0
0.1333333333331671 0.133333333333775 0
0.06666666666657967 0.1333333333338316 0
0.1999999999998971 0.2666666666674272 0
0.1999999999999821 0.3333333333342769 0
0.1333333333333781 0.4000000000013061 0
0.06666666666668905 0.4000000000014856 0
0.06666666666663235 0.2666666666676601 0
0.1333333333332647 0.2666666666675436 0
0.1333333333333214 0.3333333333344249 0
0.06666666666666071 0.3333333333345728 0
0.2000000000001522 0.4666666666677174 0
0.2000000000002373 0.5333333333343081 0
0.1333333333335482 0.6000000000010617 0
0.06666666666677412 0.6000000000012246 0
0.06666666666671742 0.4666666666681782 0
0.1333333333334348 0.4666666666679478 0
0.1333333333334915 0.533333333334547 0
0.06666666666674576 0.5333333333347861 0
0.2000000000004074 0.6666666666672307 0
0.2000000000004924 0.7333333333335625 0
0.1333333333337183 0.7999999999999297 0
0.06666666666685914 0.7999999999999649 0
0.06666666666680245 0.666666666667491 0
0.1333333333336049 0.6666666666673609 0
0.1333333333336616 0.7333333333336558 0
0.0666666666668308 0.7333333333337492 0
0.2000000000006625 0.8666666666665963 0
0.2000000000007475 0.9333333333332982 0
0.0666666666668875 0.8666666666666005 0
0.133333333333775 0.8666666666665984 0
0.1333333333338316 0.9333333333332969 0
0.06666666666691584 0.933333333333296 0
0.3999999999991526 0.06666666666677409 0
0.3999999999993321 0.1333333333335482 0
0.333333333332945 0.2000000000004073 0
0.2666666666663785 0.2000000000004924 0
0.2666666666661455 0.06666666666683077 0
0.3333333333326491 0.06666666666680243 0
0.3333333333327971 0.1333333333336049 0
0.266666666666262 0.1333333333336615 0
0.399999999999691 0.2666666666670776 0
0.3999999999998704 0.3333333333338329 0
0.333333333333389 0.4000000000007677 0
0.2666666666667281 0.4000000000009472 0
0.2666666666664951 0.2666666666673106 0
0.333333333333093 0.2666666666671941 0
0.3333333333332409 0.3333333333339809 0
0.2666666666666115 0.333333333334129 0
0.4000000000002293 0.4666666666671956 0
0.4000000000004088 0.533333333333803 0
0.3333333333338329 0.6000000000005732 0
0.2666666666670776 0.6000000000007359 0
0.2666666666668446 0.4666666666675435 0
0.333333333333537 0.4666666666673696 0
0.3333333333336849 0.5333333333339713 0
0.266666666666961 0.5333333333341397 0
0.4000000000007677 0.6666666666668699 0
0.4000000000009472 0.7333333333333295 0
0.3333333333342769 0.7999999999998242 0
0.2666666666674272 0.7999999999998594 0
0.2666666666671941 0.6666666666671104 0
0.333333333333981 0.6666666666669903 0
0.3333333333341289 0.7333333333334073 0
0.2666666666673106 0.7333333333334848 0
0.4000000000013061 0.866666666666526 0
0.4000000000014856 0.933333333333263 0
0.2666666666675437 0.866666666666573 0
0.3333333333344248 0.8666666666665495 0
0.3333333333345729 0.9333333333332747 0
0.2666666666676601 0.9333333333332863 0
0.5999999999991079 0.06666666666668905 0
0.5999999999992707 0.1333333333333781 0
0.5333333333327929 0.2000000000001522 0
0.4666666666661522 0.2000000000002372 0
0.466666666665681 0.06666666666674576 0
0.5333333333323329 0.0666666666667174 0
0.5333333333325627 0.1333333333334348 0
0.4666666666659165 0.1333333333334915 0
0.5999999999995964 0.2666666666667281 0
0.5999999999997592 0.333333333333389 0
0.533333333333298 0.4000000000002293 0
0.4666666666666739 0.4000000000004088 0
0.4666666666663262 0.2666666666669611 0
0.5333333333329614 0.2666666666668446 0
0.5333333333331296 0.3333333333335369 0
0.4666666666664999 0.3333333333336849 0
0.6000000000000849 0.4666666666666738 0
0.6000000000002477 0.5333333333332978 0
0.5333333333338031 0.6000000000000847 0
0.4666666666671957 0.6000000000002474 0
0.4666666666668479 0.4666666666670217 0
0.5333333333334663 0.4666666666668478 0
0.5333333333336348 0.5333333333334662 0
0.4666666666670218 0.5333333333336345 0
0.6000000000005733 0.666666666666509 0
0.6000000000007361 0.7333333333330962 0
0.5333333333343081 0.7999999999997186 0
0.4666666666677174 0.7999999999997539 0
0.4666666666673696 0.6666666666667496 0
0.5333333333339714 0.6666666666666292 0
0.5333333333341397 0.733333333333174 0
0.4666666666675434 0.7333333333332517 0
0.6000000000010617 0.8666666666664556 0
0.6000000000012246 0.9333333333332278 0
0.4666666666679478 0.8666666666665026 0
0.5333333333345471 0.8666666666664791 0
0.5333333333347859 0.9333333333332395 0
0.4666666666681783 0.9333333333332512 0
0.7999999999995075 0.06666666666660402 0
0.7999999999995427 0.133333333333208 0
0.7333333333328631 0.1999999999998971 0
0.6666666666661483 0.1999999999999821 0
0.6666666666659079 0.06666666666666071 0
0.7333333333327077 0.06666666666663235 0
0.7333333333327855 0.1333333333332647 0
0.6666666666660279 0.1333333333333214 0
0.799999999999613 0.2666666666663786 0
0.7999999999996482 0.333333333332945 0
0.7333333333330962 0.399999999999691 0
0.6666666666665092 0.3999999999998704 0
0.6666666666662686 0.2666666666666115 0
0.7333333333329409 0.2666666666664951 0
0.7333333333330185 0.333333333333093 0
0.6666666666663887 0.3333333333332409 0
0.7999999999997186 0.4666666666661522 0
0.7999999999997537 0.5333333333327929 0
0.7333333333333294 0.5999999999995963 0
0.66666666666687 0.5999999999997591 0
0.6666666666666295 0.4666666666664999 0
[...]
CELL_DATA 125
SCALARS CellEntityIds int 1
LOOKUP_TABLE default
1
1
1
1
1
1
1
1
1
1
1
1
1
1
1
1
1
1
1
1
1
1
1
1
1
1
1
1
1
1
1
1
1
1
1
1
1
1
1
1
1
1
1
1
1
1
1
1
1
1
1
1
1
1
1
1
1
1
1
1
1
1
1
1
1
1
1
1
1
1
1
1
1
1
1
1
1
1
1
1
1
1
1
1
1
1
1
1
1
1
1
1
1
1
1
1
1
1
1
1
1
1
1
1
1
1
1
1
1
1
1
1
1
1
1
1
1
1
1
1
1
1
1
1
1
