# vtk DataFile Version 2.0
3D, Created by Gmsh 4.12.2 
ASCII
DATASET UNSTRUCTURED_GRID
POINTS 64 double
0 0 0
1 0 0
1 1 0
0 1 0
0 0 1
1 0 1
1 1 1
0 1 1
0.3333333333324915 0 0
0.6666666666657831 0 0
1 0.3333333333324915 0
1 0.6666666666657831 0
0.6666666666668164 1 0
0.3333333333341704 1 0
0 0.6666666666668164 0
0 0.3333333333341704 0
0.3333333333324915 0 1
0.6666666666657831 0 1
1 0.3333333333324915 1
1 0.6666666666657831 1
0.6666666666668164 1 1
0.3333333333341704 1 1
0 0.6666666666668164 1
0 0.3333333333341704 1
0 0 0.3333333333324915
0 0 0.6666666666657831
1 0 0.3333333333324915
1 0 0.6666666666657831
1 1 0.3333333333324915
1 1 0.6666666666657831
0 1 0.3333333333324915
0 1 0.6666666666657831
0.3333333333330511 0.3333333333336107 0
0.6666666666661274 0.3333333333330512 0
0.666666666666472 0.6666666666661276 0
0.3333333333336108 0.6666666666664719 0
0.3333333333330511 0.3333333333336107 1
0.6666666666661274 0.3333333333330512 1
0.666666666666472 0.6666666666661276 1
0.3333333333336108 0.6666666666664719 1
0.3333333333324915 0 0.3333333333324915
0.666666666665783 0 0.3333333333324915
0.6666666666657831 0 0.6666666666657831
0.3333333333324915 0 0.666666666665783
1 0.3333333333324915 0.3333333333324915
1 0.666666666665783 0.3333333333324915
1 0.6666666666657831 0.6666666666657831
1 0.3333333333324915 0.666666666665783
0.6666666666668164 1 0.3333333333324915
0.3333333333341704 1 0.3333333333324915
0.3333333333341704 1 0.6666666666657831
0.6666666666668164 1 0.666666666665783
0 0.6666666666668164 0.3333333333324915
0 0.3333333333341704 0.3333333333324915
0 0.3333333333341704 0.6666666666657831
0 0.6666666666668164 0.666666666665783
0.333333333333051 0.3333333333336107 0.3333333333324914
0.6666666666661274 0.3333333333330512 0.3333333333324914
0.6666666666664718 0.6666666666661274 0.3333333333324915
0.3333333333336107 0.666666666666472 0.3333333333324914
0.3333333333330512 0.3333333333336106 0.666666666665783
0.6666666666661274 0.3333333333330513 0.6666666666657827
0.6666666666664721 0.6666666666661278 0.666666666665783
0.3333333333336109 0.6666666666664718 0.6666666666657828

CELLS 1 65
64 0 1 2 3 4 5 6 7 8 9 10 11 12 13 14 15 16 17 18 19 20 21 22 23 24 25 26 27 28 29 30 31 32 33 34 35 36 37 38 39 40 41 42 43 44 45 46 47 48 49 50 51 52 53 54 55 56 57 58 59 60 61 62 63

CELL_TYPES 1
12

CELL_DATA 1
SCALARS CellEntityIds int 1
LOOKUP_TABLE default
1
