# vtk DataFile Version 2.0
3D, Created by Gmsh 4.12.2 
ASCII
DATASET UNSTRUCTURED_GRID
POINTS 343 double
0 0 0
1 0 0
1 1 0
0 1 0
0 0 1
1 0 1
1 1 1
0 1 1
0.4999999999986921 0 0
0.1666666666663324 0 0
0.3333333333325122 0 0
0.6666666666657948 0 0
0.8333333333328974 0 0
1 0.4999999999986921 0
1 0.1666666666663324 0
1 0.3333333333325122 0
1 0.6666666666657948 0
1 0.8333333333328974 0
0.5000000000020595 1 0
0.8333333333340962 1 0
0.6666666666680601 1 0
0.3333333333347063 1 0
0.1666666666673532 1 0
0 0.5000000000020595 0
0 0.8333333333340962 0
0 0.6666666666680601 0
0 0.3333333333347063 0
0 0.1666666666673532 0
0.4999999999986921 0 1
0.1666666666663324 0 1
0.3333333333325122 0 1
0.6666666666657948 0 1
0.8333333333328974 0 1
1 0.4999999999986921 1
1 0.1666666666663324 1
1 0.3333333333325122 1
1 0.6666666666657948 1
1 0.8333333333328974 1
0.5000000000020595 1 1
0.8333333333340962 1 1
0.6666666666680601 1 1
0.3333333333347063 1 1
0.1666666666673532 1 1
0 0.5000000000020595 1
0 0.8333333333340962 1
0 0.6666666666680601 1
0 0.3333333333347063 1
0 0.1666666666673532 1
0 0 0.4999999999986921
0 0 0.1666666666663324
0 0 0.3333333333325122
0 0 0.6666666666657948
0 0 0.8333333333328974
1 0 0.4999999999986921
1 0 0.1666666666663324
1 0 0.3333333333325122
1 0 0.6666666666657948
1 0 0.8333333333328974
1 1 0.4999999999986921
1 1 0.1666666666663324
1 1 0.3333333333325122
1 1 0.6666666666657948
1 1 0.8333333333328974
0 1 0.4999999999986921
0 1 0.1666666666663324
0 1 0.3333333333325122
0 1 0.6666666666657948
0 1 0.8333333333328974
0.5000000000003758 0.5000000000003758 0
0.4999999999992533 0.1666666666667919 0
0.4999999999998146 0.3333333333335838 0
0.3333333333335839 0.500000000000937 0
0.166666666666792 0.5000000000014982 0
0.1666666666664856 0.1666666666671661 0
0.3333333333328695 0.166666666666979 0
0.3333333333332267 0.3333333333339579 0
0.1666666666666388 0.3333333333343321 0
0.500000000000937 0.6666666666669172 0
0.5000000000014982 0.8333333333334586 0
0.166666666666979 0.666666666667679 0
0.333333333333958 0.666666666667298 0
0.3333333333343321 0.8333333333336712 0
0.1666666666671661 0.8333333333338836 0
0.8333333333334586 0.4999999999992533 0
0.6666666666669172 0.4999999999998146 0
0.6666666666661689 0.1666666666666387 0
0.8333333333330846 0.1666666666664856 0
0.8333333333332715 0.3333333333328694 0
0.6666666666665431 0.3333333333332266 0
0.6666666666672982 0.666666666666543 0
0.8333333333336712 0.6666666666661689 0
0.8333333333338836 0.8333333333330846 0
0.666666666667679 0.8333333333332716 0
0.5000000000003758 0.5000000000003758 1
0.4999999999992533 0.1666666666667919 1
0.4999999999998146 0.3333333333335838 1
0.3333333333335839 0.500000000000937 1
0.166666666666792 0.5000000000014982 1
0.1666666666664856 0.1666666666671661 1
0.3333333333328695 0.166666666666979 1
0.3333333333332267 0.3333333333339579 1
0.1666666666666388 0.3333333333343321 1
0.500000000000937 0.6666666666669172 1
0.5000000000014982 0.8333333333334586 1
0.166666666666979 0.666666666667679 1
0.333333333333958 0.666666666667298 1
0.3333333333343321 0.8333333333336712 1
0.1666666666671661 0.8333333333338836 1
0.8333333333334586 0.4999999999992533 1
0.6666666666669172 0.4999999999998146 1
0.6666666666661689 0.1666666666666387 1
0.8333333333330846 0.1666666666664856 1
0.8333333333332715 0.3333333333328694 1
0.6666666666665431 0.3333333333332266 1
0.6666666666672982 0.666666666666543 1
0.8333333333336712 0.6666666666661689 1
0.8333333333338836 0.8333333333330846 1
0.666666666667679 0.8333333333332716 1
0.499999999998692 0 0.499999999998692
0.4999999999986921 0 0.1666666666662307
0.499999999998692 0 0.3333333333324613
0.3333333333324614 0 0.499999999998692
0.1666666666662307 0 0.4999999999986921
0.1666666666662985 0 0.1666666666662985
0.3333333333324953 0 0.1666666666662646
0.3333333333324783 0 0.3333333333324783
0.1666666666662646 0 0.3333333333324953
0.499999999998692 0 0.6666666666657947
0.4999999999986921 0 0.8333333333328974
0.1666666666662646 0 0.6666666666657948
0.3333333333324783 0 0.6666666666657947
0.3333333333324953 0 0.8333333333328976
0.1666666666662985 0 0.8333333333328975
0.8333333333328974 0 0.4999999999986921
0.6666666666657948 0 0.499999999998692
0.6666666666657948 0 0.1666666666662646
0.8333333333328975 0 0.1666666666662985
0.8333333333328974 0 0.3333333333324953
0.6666666666657948 0 0.3333333333324783
0.6666666666657948 0 0.6666666666657947
0.8333333333328974 0 0.6666666666657948
0.8333333333328974 0 0.8333333333328976
0.6666666666657948 0 0.8333333333328974
1 0.499999999998692 0.499999999998692
1 0.4999999999986921 0.1666666666662307
1 0.499999999998692 0.3333333333324613
1 0.3333333333324614 0.499999999998692
1 0.1666666666662307 0.4999999999986921
1 0.1666666666662985 0.1666666666662985
1 0.3333333333324953 0.1666666666662646
1 0.3333333333324783 0.3333333333324783
1 0.1666666666662646 0.3333333333324953
1 0.499999999998692 0.6666666666657947
1 0.4999999999986921 0.8333333333328974
1 0.1666666666662646 0.6666666666657948
1 0.3333333333324783 0.6666666666657947
1 0.3333333333324953 0.8333333333328976
1 0.1666666666662985 0.8333333333328975
1 0.8333333333328974 0.4999999999986921
1 0.6666666666657948 0.499999999998692
1 0.6666666666657948 0.1666666666662646
1 0.8333333333328975 0.1666666666662985
1 0.8333333333328974 0.3333333333324953
1 0.6666666666657948 0.3333333333324783
1 0.6666666666657948 0.6666666666657947
1 0.8333333333328974 0.6666666666657948
1 0.8333333333328974 0.8333333333328976
1 0.6666666666657948 0.8333333333328974
0.5000000000020595 1 0.499999999998692
0.5000000000020595 1 0.1666666666662307
0.5000000000020595 1 0.3333333333324613
0.6666666666680396 1 0.499999999998692
0.8333333333340198 1 0.4999999999986921
0.8333333333340707 1 0.1666666666662985
0.6666666666680532 1 0.1666666666662646
0.6666666666680465 1 0.3333333333324783
0.8333333333340454 1 0.3333333333324953
0.5000000000020595 1 0.6666666666657947
0.5000000000020595 1 0.8333333333328974
0.8333333333340454 1 0.6666666666657948
0.6666666666680463 1 0.6666666666657947
0.6666666666680532 1 0.8333333333328976
0.8333333333340707 1 0.8333333333328975
0.1666666666673531 1 0.4999999999986921
0.3333333333347063 1 0.499999999998692
0.3333333333347062 1 0.1666666666662646
0.1666666666673532 1 0.1666666666662985
0.1666666666673531 1 0.3333333333324953
0.3333333333347062 1 0.3333333333324783
0.3333333333347062 1 0.6666666666657947
0.1666666666673531 1 0.6666666666657948
0.1666666666673531 1 0.8333333333328976
0.3333333333347062 1 0.8333333333328974
0 0.5000000000020595 0.499999999998692
0 0.5000000000020595 0.1666666666662307
0 0.5000000000020595 0.3333333333324613
0 0.6666666666680396 0.499999999998692
0 0.8333333333340198 0.4999999999986921
0 0.8333333333340707 0.1666666666662985
0 0.6666666666680532 0.1666666666662646
0 0.6666666666680465 0.3333333333324783
0 0.8333333333340454 0.3333333333324953
0 0.5000000000020595 0.6666666666657947
0 0.5000000000020595 0.8333333333328974
0 0.8333333333340454 0.6666666666657948
0 0.6666666666680463 0.6666666666657947
0 0.6666666666680532 0.8333333333328976
0 0.8333333333340707 0.8333333333328975
0 0.1666666666673531 0.4999999999986921
0 0.3333333333347063 0.499999999998692
0 0.3333333333347062 0.1666666666662646
0 0.1666666666673532 0.1666666666662985
0 0.1666666666673531 0.3333333333324953
0 0.3333333333347062 0.3333333333324783
0 0.3333333333347062 0.6666666666657947
0 0.1666666666673531 0.6666666666657948
0 0.1666666666673531 0.8333333333328976
0 0.3333333333347062 0.8333333333328974
0.5000000000003757 0.5000000000003757 0.499999999998692
0.5000000000003758 0.5000000000003758 0.1666666666662307
0.5000000000003757 0.5000000000003757 0.3333333333324613
0.4999999999992533 0.1666666666667919 0.499999999998692
0.4999999999998145 0.3333333333335838 0.499999999998692
0.3333333333335838 0.500000000000937 0.499999999998692
0.1666666666667919 0.5000000000014981 0.499999999998692
0.4999999999992534 0.1666666666667919 0.1666666666662306
0.4999999999998146 0.3333333333335838 0.1666666666662307
0.4999999999998144 0.3333333333335837 0.3333333333324613
0.4999999999992534 0.1666666666667919 0.3333333333324613
0.3333333333335839 0.5000000000009369 0.1666666666662306
0.166666666666792 0.5000000000014981 0.1666666666662307
0.1666666666667919 0.5000000000014981 0.3333333333324613
0.3333333333335838 0.500000000000937 0.3333333333324613
0.1666666666664177 0.166666666667166 0.4999999999986922
0.3333333333328355 0.166666666666979 0.499999999998692
0.3333333333332097 0.333333333333958 0.499999999998692
0.1666666666666048 0.3333333333343321 0.4999999999986922
0.166666666666463 0.166666666667166 0.1666666666662759
0.3333333333328582 0.1666666666669789 0.1666666666662531
0.333333333333221 0.3333333333339578 0.1666666666662419
0.1666666666666275 0.3333333333343319 0.1666666666662533
0.1666666666664404 0.166666666667166 0.3333333333324839
0.3333333333328469 0.166666666666979 0.3333333333324725
0.3333333333332151 0.3333333333339579 0.3333333333324669
0.1666666666666161 0.333333333334332 0.3333333333324728
0.5000000000003757 0.5000000000003757 0.6666666666657948
0.5000000000003757 0.5000000000003757 0.8333333333328974
0.4999999999992533 0.1666666666667919 0.6666666666657947
0.4999999999998144 0.3333333333335838 0.6666666666657947
0.4999999999998145 0.3333333333335837 0.8333333333328976
0.4999999999992534 0.1666666666667919 0.8333333333328974
0.3333333333335838 0.500000000000937 0.6666666666657948
0.1666666666667919 0.5000000000014981 0.6666666666657947
0.1666666666667919 0.5000000000014981 0.8333333333328976
0.3333333333335838 0.500000000000937 0.8333333333328974
0.1666666666664404 0.166666666667166 0.6666666666657943
0.3333333333328468 0.166666666666979 0.6666666666657948
0.3333333333332154 0.3333333333339579 0.6666666666657945
0.1666666666666161 0.333333333334332 0.6666666666657948
0.166666666666463 0.166666666667166 0.8333333333328976
0.3333333333328581 0.166666666666979 0.8333333333328976
0.3333333333332209 0.3333333333339578 0.8333333333328976
0.1666666666666275 0.3333333333343319 0.8333333333328974
0.500000000000937 0.6666666666669172 0.499999999998692
0.5000000000014981 0.8333333333334585 0.499999999998692
0.5000000000009369 0.6666666666669172 0.1666666666662306
0.5000000000014981 0.8333333333334587 0.1666666666662307
0.5000000000014981 0.8333333333334585 0.3333333333324613
0.500000000000937 0.6666666666669172 0.3333333333324613
0.166666666666979 0.6666666666676655 0.499999999998692
0.333333333333958 0.6666666666672914 0.499999999998692
0.3333333333343321 0.8333333333336457 0.499999999998692
0.166666666667166 0.8333333333338326 0.4999999999986922
0.166666666666979 0.6666666666676745 0.1666666666662532
0.3333333333339578 0.6666666666672953 0.1666666666662418
0.3333333333343321 0.8333333333336623 0.1666666666662533
0.166666666667166 0.8333333333338668 0.1666666666662759
0.1666666666669789 0.6666666666676703 0.3333333333324725
0.333333333333958 0.6666666666672938 0.3333333333324668
0.333333333334332 0.8333333333336541 0.3333333333324726
0.1666666666671661 0.83333333333385 0.3333333333324839
0.500000000000937 0.6666666666669172 0.6666666666657948
0.5000000000014981 0.8333333333334585 0.6666666666657947
0.5000000000014981 0.8333333333334585 0.8333333333328976
0.500000000000937 0.6666666666669172 0.8333333333328974
0.1666666666669789 0.6666666666676695 0.6666666666657948
0.3333333333339579 0.6666666666672932 0.6666666666657945
0.333333333334332 0.8333333333336538 0.6666666666657945
0.166666666667166 0.8333333333338496 0.6666666666657948
0.166666666666979 0.6666666666676742 0.8333333333328978
0.333333333333958 0.666666666667296 0.8333333333328975
0.333333333334332 0.8333333333336622 0.8333333333328974
0.166666666667166 0.8333333333338664 0.8333333333328974
0.8333333333334586 0.4999999999992533 0.499999999998692
0.6666666666669172 0.4999999999998145 0.499999999998692
0.8333333333334587 0.4999999999992534 0.1666666666662306
0.6666666666669172 0.4999999999998146 0.1666666666662307
0.6666666666669172 0.4999999999998144 0.3333333333324613
0.8333333333334586 0.4999999999992534 0.3333333333324613
0.6666666666661689 0.1666666666666048 0.499999999998692
0.8333333333330846 0.1666666666664178 0.4999999999986921
0.8333333333332715 0.3333333333328355 0.4999999999986921
0.6666666666665431 0.3333333333332096 0.499999999998692
0.6666666666661685 0.1666666666666275 0.1666666666662532
0.8333333333330849 0.166666666666463 0.1666666666662759
0.8333333333332716 0.3333333333328581 0.1666666666662532
0.6666666666665428 0.3333333333332209 0.1666666666662419
0.6666666666661688 0.1666666666666161 0.3333333333324726
0.8333333333330847 0.1666666666664404 0.3333333333324839
0.8333333333332716 0.3333333333328469 0.3333333333324726
0.666666666666543 0.3333333333332151 0.333333333332467
0.8333333333334586 0.4999999999992533 0.6666666666657947
0.6666666666669171 0.4999999999998144 0.6666666666657947
0.6666666666669172 0.4999999999998145 0.8333333333328976
0.8333333333334586 0.4999999999992534 0.8333333333328974
0.6666666666661683 0.166666666666616 0.6666666666657945
0.8333333333330848 0.1666666666664403 0.6666666666657948
0.8333333333332715 0.3333333333328468 0.6666666666657948
0.666666666666543 0.3333333333332151 0.6666666666657945
0.6666666666661688 0.1666666666666274 0.8333333333328976
0.8333333333330845 0.166666666666463 0.8333333333328975
0.8333333333332714 0.333333333332858 0.8333333333328977
0.6666666666665431 0.3333333333332208 0.8333333333328974
0.6666666666672914 0.6666666666665431 0.499999999998692
0.8333333333336458 0.6666666666661689 0.499999999998692
0.8333333333338326 0.8333333333330843 0.4999999999986921
0.6666666666676655 0.8333333333332714 0.4999999999986921
0.6666666666672956 0.6666666666665434 0.1666666666662419
0.8333333333336626 0.666666666666169 0.1666666666662532
0.8333333333338664 0.8333333333330848 0.1666666666662758
0.6666666666676744 0.8333333333332718 0.1666666666662533
0.6666666666672936 0.666666666666543 0.3333333333324667
0.8333333333336546 0.6666666666661689 0.3333333333324725
0.8333333333338497 0.8333333333330843 0.3333333333324839
0.6666666666676704 0.8333333333332714 0.3333333333324726
0.6666666666672935 0.6666666666665428 0.6666666666657945
0.8333333333336542 0.6666666666661689 0.6666666666657948
0.8333333333338496 0.8333333333330848 0.6666666666657943
0.6666666666676695 0.8333333333332715 0.6666666666657948
0.6666666666672958 0.666666666666543 0.8333333333328976
0.8333333333336628 0.6666666666661689 0.8333333333328975
0.8333333333338666 0.8333333333330846 0.8333333333328975
0.6666666666676744 0.8333333333332713 0.8333333333328974

CELLS 8 520
64 0 8 68 23 48 118 218 193 9 10 27 26 49 50 69 70 119 120 71 72 219 220 194 195 122 121 208 209 221 222 223 224 73 76 75 74 123 124 125 126 211 212 213 210 225 226 227 228 229 230 231 232 233 234 235 236 237 238 239 240 241 242 243 244
64 48 118 218 193 4 28 93 43 122 121 208 209 51 52 221 222 127 128 223 224 245 246 202 203 29 30 47 46 94 95 96 97 233 236 235 234 129 130 131 132 215 216 217 214 247 248 249 250 251 252 253 254 98 99 100 101 255 256 257 258 259 260 261 262
64 23 68 18 3 193 218 168 63 72 71 25 24 194 195 77 78 219 220 21 22 169 170 64 65 224 223 196 197 263 264 184 183 79 82 81 80 230 229 232 231 199 200 201 198 265 266 267 268 185 186 187 188 269 270 271 272 273 274 275 276 277 278 279 280
64 193 218 168 63 43 93 38 7 224 223 196 197 202 203 263 264 245 246 184 183 177 178 66 67 97 96 45 44 102 103 41 42 269 272 271 270 252 251 254 253 205 206 207 204 281 282 283 284 189 190 191 192 104 105 106 107 285 286 287 288 289 290 291 292
64 8 1 13 68 118 53 143 218 11 12 69 70 119 120 14 15 54 55 83 84 144 145 219 220 134 133 221 222 147 146 293 294 85 88 87 86 135 136 137 138 225 228 227 226 148 149 150 151 295 296 297 298 299 300 301 302 303 304 305 306 307 308 309 310
64 118 53 143 218 28 5 33 93 134 133 221 222 127 128 147 146 56 57 293 294 152 153 245 246 31 32 94 95 34 35 108 109 299 302 301 300 139 140 141 142 247 250 249 248 154 155 156 157 311 312 313 314 110 111 112 113 315 316 317 318 319 320 321 322
64 68 13 2 18 218 143 58 168 84 83 77 78 219 220 16 17 144 145 19 20 59 60 169 170 294 293 263 264 159 158 172 171 89 92 91 90 296 295 298 297 265 268 267 266 160 161 162 163 173 174 175 176 323 324 325 326 327 328 329 330 331 332 333 334
64 218 143 58 168 93 33 6 38 294 293 263 264 245 246 159 158 152 153 172 171 61 62 177 178 109 108 102 103 36 37 39 40 323 326 325 324 312 311 314 313 281 284 283 282 164 165 166 167 179 180 181 182 114 115 116 117 335 336 337 338 339 340 341 342

CELL_TYPES 8
12
12
12
12
12
12
12
12

CELL_DATA 8
SCALARS CellEntityIds int 1
LOOKUP_TABLE default
1
1
1
1
1
1
1
1
