# vtk DataFile Version 2.0
3D, Created by Gmsh 4.12.2 
ASCII
DATASET UNSTRUCTURED_GRID
POINTS 1000 double
0 0 0
1 0 0
1 1 0
0 1 0
0 0 1
1 0 1
1 1 1
0 1 1
0.333333333332501 0 0
0.6666666666657874 0 0
0.1111111111109107 0 0
0.2222222222217142 0 0
0.4444444444432881 0 0
0.5555555555543835 0 0
0.7777777777771916 0 0
0.8888888888885957 0 0
1 0.333333333332501 0
1 0.6666666666657874 0
1 0.1111111111109107 0
1 0.2222222222217142 0
1 0.4444444444432881 0
1 0.5555555555543835 0
1 0.7777777777771916 0
1 0.8888888888885957 0
0.6666666666675918 1 0
0.3333333333347207 1 0
0.8888888888891017 1 0
0.7777777777782718 1 0
0.5555555555568084 1 0
0.4444444444459079 1 0
0.2222222222231471 1 0
0.1111111111115736 1 0
0 0.6666666666675918 0
0 0.3333333333347207 0
0 0.8888888888891017 0
0 0.7777777777782718 0
0 0.5555555555568084 0
0 0.4444444444459079 0
0 0.2222222222231471 0
0 0.1111111111115736 0
0.333333333332501 0 1
0.6666666666657874 0 1
0.1111111111109107 0 1
0.2222222222217142 0 1
0.4444444444432881 0 1
0.5555555555543835 0 1
0.7777777777771916 0 1
0.8888888888885957 0 1
1 0.333333333332501 1
1 0.6666666666657874 1
1 0.1111111111109107 1
1 0.2222222222217142 1
1 0.4444444444432881 1
1 0.5555555555543835 1
1 0.7777777777771916 1
1 0.8888888888885957 1
0.6666666666675918 1 1
0.3333333333347207 1 1
0.8888888888891017 1 1
0.7777777777782718 1 1
0.5555555555568084 1 1
0.4444444444459079 1 1
0.2222222222231471 1 1
0.1111111111115736 1 1
0 0.6666666666675918 1
0 0.3333333333347207 1
0 0.8888888888891017 1
0 0.7777777777782718 1
0 0.5555555555568084 1
0 0.4444444444459079 1
0 0.2222222222231471 1
0 0.1111111111115736 1
0 0 0.333333333332501
0 0 0.6666666666657874
0 0 0.1111111111109107
0 0 0.2222222222217142
0 0 0.4444444444432881
0 0 0.5555555555543835
0 0 0.7777777777771916
0 0 0.8888888888885957
1 0 0.333333333332501
1 0 0.6666666666657874
1 0 0.1111111111109107
1 0 0.2222222222217142
1 0 0.4444444444432881
1 0 0.5555555555543835
1 0 0.7777777777771916
1 0 0.8888888888885957
1 1 0.333333333332501
1 1 0.6666666666657874
1 1 0.1111111111109107
1 1 0.2222222222217142
1 1 0.4444444444432881
1 1 0.5555555555543835
1 1 0.7777777777771916
1 1 0.8888888888885957
0 1 0.333333333332501
0 1 0.6666666666657874
0 1 0.1111111111109107
0 1 0.2222222222217142
0 1 0.4444444444432881
0 1 0.5555555555543835
0 1 0.7777777777771916
0 1 0.8888888888885957
0.3333333333332409 0.3333333333339809 0
0.3333333333339808 0.6666666666669903 0
0.666666666666389 0.3333333333332409 0
0.6666666666669903 0.666666666666389 0
0.3333333333327477 0.111111111111327 0
0.3333333333329943 0.2222222222226539 0
0.2222222222221606 0.3333333333342275 0
0.1111111111110803 0.3333333333344741 0
0.1111111111109672 0.1111111111114914 0
0.222222222221863 0.1111111111114092 0
0.2222222222220118 0.2222222222228183 0
0.1111111111110238 0.2222222222229828 0
0.3333333333334876 0.444444444444984 0
0.3333333333337342 0.5555555555559871 0
0.2222222222226539 0.6666666666671908 0
0.1111111111113269 0.6666666666673913 0
0.1111111111111625 0.4444444444456 0
0.2222222222223251 0.444444444445292 0
0.2222222222224895 0.5555555555562608 0
0.1111111111112447 0.5555555555565346 0
0.3333333333342274 0.7777777777779935 0
0.3333333333344741 0.8888888888889968 0
0.1111111111114092 0.7777777777781791 0
0.2222222222228183 0.7777777777780863 0
0.2222222222229827 0.8888888888890318 0
0.1111111111114914 0.8888888888890668 0
0.666666666665988 0.1111111111110803 0
0.6666666666661885 0.2222222222221606 0
0.5555555555553396 0.3333333333334876 0
0.4444444444442903 0.3333333333337343 0
0.4444444444436222 0.1111111111112447 0
0.5555555555547022 0.1111111111111625 0
0.5555555555550209 0.222222222222325 0
0.4444444444439563 0.2222222222224895 0
0.6666666666665894 0.4444444444442903 0
0.6666666666667899 0.5555555555553396 0
0.5555555555559871 0.6666666666665894 0
0.444444444444984 0.6666666666667899 0
0.4444444444445215 0.4444444444447528 0
0.5555555555555554 0.4444444444445215 0
0.5555555555557713 0.5555555555555555 0
0.4444444444447528 0.5555555555557713 0
0.6666666666671908 0.7777777777775926 0
0.6666666666673913 0.8888888888887962 0
0.444444444445292 0.7777777777778598 0
0.5555555555562609 0.7777777777777262 0
0.5555555555565346 0.8888888888888631 0
0.4444444444455999 0.88888888888893 0
0.8888888888887964 0.3333333333327477 0
0.7777777777775927 0.3333333333329943 0
0.7777777777773254 0.1111111111110238 0
0.8888888888886626 0.1111111111109672 0
0.8888888888887294 0.222222222221863 0
0.777777777777459 0.2222222222220118 0
0.8888888888889968 0.666666666665988 0
0.7777777777779935 0.6666666666661885 0
0.7777777777777263 0.4444444444439562 0
0.8888888888888631 0.4444444444436221 0
0.8888888888889299 0.5555555555547022 0
0.7777777777778599 0.555555555555021 0
0.7777777777780863 0.777777777777459 0
0.8888888888890318 0.7777777777773252 0
0.8888888888890667 0.8888888888886626 0
0.7777777777781791 0.8888888888887294 0
0.3333333333332409 0.3333333333339809 1
0.3333333333339808 0.6666666666669903 1
0.666666666666389 0.3333333333332409 1
0.6666666666669903 0.666666666666389 1
0.3333333333327477 0.111111111111327 1
0.3333333333329943 0.2222222222226539 1
0.2222222222221606 0.3333333333342275 1
0.1111111111110803 0.3333333333344741 1
0.1111111111109672 0.1111111111114914 1
0.222222222221863 0.1111111111114092 1
0.2222222222220118 0.2222222222228183 1
0.1111111111110238 0.2222222222229828 1
0.3333333333334876 0.444444444444984 1
0.3333333333337342 0.5555555555559871 1
0.2222222222226539 0.6666666666671908 1
0.1111111111113269 0.6666666666673913 1
0.1111111111111625 0.4444444444456 1
0.2222222222223251 0.444444444445292 1
0.2222222222224895 0.5555555555562608 1
0.1111111111112447 0.5555555555565346 1
0.3333333333342274 0.7777777777779935 1
0.3333333333344741 0.8888888888889968 1
0.1111111111114092 0.7777777777781791 1
0.2222222222228183 0.7777777777780863 1
0.2222222222229827 0.8888888888890318 1
0.1111111111114914 0.8888888888890668 1
0.666666666665988 0.1111111111110803 1
0.6666666666661885 0.2222222222221606 1
0.5555555555553396 0.3333333333334876 1
0.4444444444442903 0.3333333333337343 1
0.4444444444436222 0.1111111111112447 1
0.5555555555547022 0.1111111111111625 1
0.5555555555550209 0.222222222222325 1
0.4444444444439563 0.2222222222224895 1
0.6666666666665894 0.4444444444442903 1
0.6666666666667899 0.5555555555553396 1
0.5555555555559871 0.6666666666665894 1
0.444444444444984 0.6666666666667899 1
0.4444444444445215 0.4444444444447528 1
0.5555555555555554 0.4444444444445215 1
0.5555555555557713 0.5555555555555555 1
0.4444444444447528 0.5555555555557713 1
0.6666666666671908 0.7777777777775926 1
0.6666666666673913 0.8888888888887962 1
0.444444444445292 0.7777777777778598 1
0.5555555555562609 0.7777777777777262 1
0.5555555555565346 0.8888888888888631 1
0.4444444444455999 0.88888888888893 1
0.8888888888887964 0.3333333333327477 1
0.7777777777775927 0.3333333333329943 1
0.7777777777773254 0.1111111111110238 1
0.8888888888886626 0.1111111111109672 1
0.8888888888887294 0.222222222221863 1
0.777777777777459 0.2222222222220118 1
0.8888888888889968 0.666666666665988 1
0.7777777777779935 0.6666666666661885 1
0.7777777777777263 0.4444444444439562 1
0.8888888888888631 0.4444444444436221 1
0.8888888888889299 0.5555555555547022 1
0.7777777777778599 0.555555555555021 1
0.7777777777780863 0.777777777777459 1
0.8888888888890318 0.7777777777773252 1
0.8888888888890667 0.8888888888886626 1
0.7777777777781791 0.8888888888887294 1
0.333333333332501 0 0.333333333332501
0.333333333332501 0 0.6666666666657874
0.6666666666657874 0 0.333333333332501
0.6666666666657874 0 0.6666666666657874
0.333333333332501 0 0.1111111111108337
0.333333333332501 0 0.2222222222216673
0.2222222222216674 0 0.333333333332501
0.1111111111108337 0 0.333333333332501
0.111111111110885 0 0.111111111110885
0.2222222222216986 0 0.1111111111108593
0.222222222221683 0 0.2222222222216829
0.1111111111108593 0 0.2222222222216986
0.333333333332501 0 0.4444444444435965
0.333333333332501 0 0.5555555555546919
0.2222222222216674 0 0.6666666666657874
0.1111111111108337 0 0.6666666666657874
0.1111111111108337 0 0.4444444444433909
0.2222222222216674 0 0.4444444444434937
0.2222222222216673 0 0.5555555555545891
0.1111111111108337 0 0.5555555555544862
0.333333333332501 0 0.7777777777771916
0.333333333332501 0 0.8888888888885957
0.1111111111108594 0 0.7777777777771917
0.222222222221683 0 0.7777777777771915
0.2222222222216986 0 0.8888888888885957
0.111111111110885 0 0.8888888888885957
0.6666666666657874 0 0.1111111111108337
0.6666666666657874 0 0.2222222222216673
0.5555555555546919 0 0.333333333332501
0.4444444444435965 0 0.333333333332501
0.4444444444433909 0 0.1111111111108337
0.5555555555544862 0 0.1111111111108337
0.555555555554589 0 0.2222222222216673
0.4444444444434937 0 0.2222222222216673
0.6666666666657874 0 0.4444444444435965
0.6666666666657874 0 0.5555555555546919
0.5555555555546919 0 0.6666666666657874
0.4444444444435965 0 0.6666666666657874
0.4444444444435965 0 0.4444444444435964
0.5555555555546918 0 0.4444444444435964
0.5555555555546918 0 0.5555555555546919
0.4444444444435965 0 0.5555555555546918
0.6666666666657874 0 0.7777777777771916
0.6666666666657874 0 0.8888888888885957
0.4444444444434937 0 0.7777777777771917
0.555555555554589 0 0.7777777777771915
0.5555555555544862 0 0.8888888888885957
0.4444444444433909 0 0.8888888888885957
0.8888888888885959 0 0.333333333332501
0.7777777777771917 0 0.333333333332501
0.7777777777771917 0 0.1111111111108593
0.8888888888885957 0 0.111111111110885
0.8888888888885957 0 0.2222222222216986
0.7777777777771917 0 0.2222222222216829
0.8888888888885959 0 0.6666666666657874
0.7777777777771917 0 0.6666666666657874
0.7777777777771917 0 0.4444444444434937
0.8888888888885957 0 0.4444444444433908
0.8888888888885957 0 0.5555555555544863
0.7777777777771917 0 0.555555555554589
0.7777777777771917 0 0.7777777777771917
0.8888888888885957 0 0.7777777777771915
0.8888888888885957 0 0.8888888888885957
0.7777777777771915 0 0.8888888888885957
[...]
CELL_DATA 27
SCALARS CellEntityIds int 1
LOOKUP_TABLE default
1
1
1
1
1
1
1
1
1
1
1
1
1
1
1
1
1
1
1
1
1
1
1
1
1
1
1
