# vtk DataFile Version 2.0
3D, Created by Gmsh 4.12.2 
ASCII
DATASET UNSTRUCTURED_GRID
POINTS 27 double
0 0 0 
0.5 0 0
0 0.5 0
0.5 0 0.5
0 0.5 0.5
0 0 0.5
0.5 0.5 0
0.5 0.5 0.5
1.0 0 0
1.0 0 0.5
1.0 0.5 0
1.0 0.5 0.5
0 1.0 0
0 1.0 0.5
0.5 1.0 0
0.5 1.0 0.5
1.0 1.0 0
1.0 1.0 0.5
0.5 0 1.0
0 0.5 1.0
0 0 1.0
0.5 0.5 1.0
1.0 0 1.0
1.0 0.5 1.0
0 1.0 1.0
0.5 1.0 1.0
1.0 1.0 1.0

CELLS 16 112
6 0 1 2 5 3 4
6 6 2 1 7 4 3
6 1 8 6 3 9 7
6 10 6 8 11 7 9
6 2 6 12 4 7 13
6 14 12 6 15 13 7
6 6 10 14 7 11 15
6 16 14 10 17 15 11
6 5 3 4 20 18 19
6 7 4 3 21 19 18
6 3 9 7 18 22 21
6 11 7 9 23 21 22
6 4 7 13 19 21 24
6 15 13 7 25 24 21
6 7 11 15 21 23 25
6 17 15 11 26 25 23

CELL_TYPES 16
13
13
13
13
13
13
13
13
13
13
13
13
13
13
13
13

CELL_DATA 16
SCALARS CellEntityIds int 1
LOOKUP_TABLE default
1
1
1
1
1
1
1
1
1
1
1
1
1
1
1
1
