# vtk DataFile Version 2.0
3D, Created by Gmsh 4.12.2 
ASCII
DATASET UNSTRUCTURED_GRID
POINTS 8 double
0 0 0
1 0 0
0 1 0
0 0 1
1 0 1
0 1 1
1 1 0
1 1 1

CELLS 2 7
6 0 1 2 3 4 5
6 6 2 1 7 5 4

CELL_TYPES 2
13
13

CELL_DATA 2
SCALARS CellEntityIds int 1
LOOKUP_TABLE default
1
1
