# vtk DataFile Version 2.0
3D, Created by Gmsh 4.12.2 
ASCII
DATASET UNSTRUCTURED_GRID
POINTS 61 double
0 0 0
1 0 0
1 1 0
0 1 0
0 0 1
1 0 1
1 1 1
0 1 1
0.4999999999986921 0 0
1 0.4999999999986921 0
0.5000000000020595 1 0
0 0.5000000000020595 0
0.4999999999986921 0 1
1 0.4999999999986921 1
0.5000000000020595 1 1
0 0.5000000000020595 1
0 0 0.4999999999986921
1 0 0.4999999999986921
1 1 0.4999999999986921
0 1 0.4999999999986921
0.5000000000003758 0.5000000000003758 0
0.5000000000003758 0.5000000000003758 1
0.499999999998692 0 0.499999999998692
1 0.499999999998692 0.499999999998692
0.5000000000020595 1 0.499999999998692
0 0.5000000000020595 0.499999999998692
0.4829638637054643 0.5301796655705127 0.5229442263671911
0.3978277274674286 0.1478142518326865 0.6478277274687365
0.5000000000016837 0.7499999999993461 0.249999999999346
0.7342534244911991 0.662571563876489 0.5793037895090005
0.2500000000010297 0.7500000000010297 0.5000000000003758
0.7499999999993461 0.499999999998692 0.249999999999346
0.6900835551301642 0.3047683670814288 0.53258155178655
0.2500000000001879 0.5000000000004209 0.7499999999999775
0.2629756580996592 0.5025379850558386 0.2625041324099752
0.5000000000016838 0.7500000000010298 0.7499999999993461
0.4999999999994087 0.2499999999996417 0.249999999999346
0.249999999999767 0.2500000000006088 0.2250002500001691
0.2500000000006088 0.7500000000006088 0.22500025
0.749999999999767 0.249999999999767 0.22500025
0.7500000000006088 0.749999999999767 0.2250002499998309
0.249999999999767 0.2500000000006088 0.7749997499998309
0.2500000000006088 0.7500000000006088 0.77499975
0.7084640927846098 0.3027255452018524 0.8211690313093489
0.7338129244273415 0.7516812495598566 0.8848270035117481
0.249999999999346 0.2250002499994114 0.249999999999346
0.2605172874952487 0.1287587434910807 0.7456523685763609
0.7499999999993461 0.22500025 0.249999999999346
0.7499999999993461 0.2250002500005885 0.7499999999993461
0.7749997500005885 0.249999999999346 0.249999999999346
0.77499975 0.249999999999346 0.7499999999993461
0.77499975 0.7499999999993461 0.249999999999346
0.8777777777782093 0.7583333055550663 0.7499999999995707
0.7500000000010298 0.7749997500007577 0.249999999999346
0.7364197530874184 0.8459258617283508 0.7499999999995208
0.2500000000010297 0.7749997499998309 0.249999999999346
0.2500000000010297 0.7749997499992424 0.7499999999993461
0.2250002499992423 0.7500000000010298 0.249999999999346
0.2250002499998309 0.7500000000010298 0.7499999999993461
0.2250002500001691 0.2500000000010297 0.249999999999346
0.2250002500007577 0.2500000000010297 0.7499999999993461

CELLS 205 1049
4 13 43 21 29
4 13 50 43 29
4 50 43 29 32
4 13 52 23 29
4 21 29 26 35
4 23 50 13 29
4 23 50 29 32
4 21 43 27 32
4 21 27 26 32
4 59 25 27 34
4 25 60 16 27
4 16 59 25 27
4 25 33 27 34
4 27 33 26 34
4 16 45 59 27
4 25 60 27 33
4 27 34 26 36
4 26 27 21 33
4 12 21 43 27
4 12 41 21 27
4 43 48 27 32
4 12 48 22 27
4 12 22 46 27
4 41 21 27 33
4 12 43 48 27
4 16 22 45 27
4 16 46 22 27
4 38 3 55 10
4 19 55 24 30
4 59 37 0 11
4 24 56 19 30
4 40 2 51 9
4 56 7 42 14
4 18 51 23 29
4 24 54 14 35
4 8 39 47 1
4 23 52 18 29
4 14 56 24 35
4 15 4 60 41
4 22 17 47 32
4 25 58 15 33
4 22 48 17 32
4 13 44 6 52
4 52 54 6 18
4 15 60 25 33
4 19 58 56 7
4 48 43 12 5
4 48 50 5 17
4 60 4 16 46
4 20 38 11 34
4 11 37 20 34
4 20 37 8 36
4 20 8 39 36
4 26 24 30 35
4 24 28 26 30
4 15 42 21 33
4 26 29 24 35
4 26 28 24 29
4 57 38 55 34
4 21 41 15 33
4 57 55 30 34
4 38 28 55 34
4 10 20 40 28
4 20 10 38 28
4 28 30 55 34
4 21 14 44 35
4 40 20 9 31
4 21 26 33 35
4 14 21 42 35
4 20 39 9 31
4 43 50 48 32
4 51 53 18 2
4 55 19 3 57
4 10 53 24 28
4 11 57 25 34
4 56 33 30 35
4 56 42 33 35
4 24 55 10 28
4 23 29 31 32
4 58 30 56 33
4 11 25 59 34
4 20 31 28 34
4 28 31 26 34
4 31 34 20 36
4 26 34 31 36
4 58 56 42 33
4 8 45 22 36
4 0 16 45 59
4 0 45 8 37
4 9 49 39 1
4 17 47 49 1
4 49 23 9 31
4 9 23 51 31
4 26 31 29 32
4 8 22 47 36
4 49 17 23 32
4 11 38 3 57
4 10 2 53 40
4 57 19 25 30
4 50 23 17 32
4 24 53 18 29
4 58 25 19 30
4 5 50 43 13
4 54 52 44 35
4 18 54 24 29
4 54 29 52 35
4 12 46 4 41
4 44 14 6 54
4 42 7 58 15
4 22 45 27 36
4 16 60 46 27
4 26 32 27 36
4 60 41 27 33
4 27 32 22 36
4 46 60 41 27
4 48 22 27 32
4 12 46 41 27
4 24 55 28 30
4 57 30 25 34
4 42 21 33 35
4 55 38 10 28
4 26 30 28 34
4 57 55 19 30
4 24 28 53 29
4 18 53 51 29
4 14 42 56 35
4 40 9 51 31
4 51 23 29 31
4 25 30 58 33
4 30 33 26 35
4 3 38 55 57
4 49 47 17 32
4 49 23 31 32
4 11 38 57 34
4 11 59 37 34
4 37 0 45 59
4 58 56 7 42
4 15 58 42 33
4 60 15 41 33
4 51 53 2 40
4 54 6 44 52
4 22 32 47 36
4 31 32 26 36
4 8 47 39 36
4 46 60 4 41
4 56 30 24 35
4 47 39 49 1
4 18 52 54 29
4 58 19 56 30
4 43 48 50 5
4 38 20 28 34
4 28 29 26 31
4 10 40 53 28
4 37 20 34 36
4 54 44 14 35
4 8 37 45 36
4 50 17 48 32
4 24 29 54 35
4 49 9 39 31
4 20 39 31 36
4 40 28 20 31
4 32 21 29 26
4 32 29 21 43
4 35 52 21 29
4 35 21 52 44
4 13 21 52 29
4 13 52 21 44
4 45 27 34 59
4 34 27 45 36
4 34 37 45 59
4 45 37 34 36
4 34 33 30 25
4 34 30 33 26
4 39 49 32 47
4 32 49 39 31
4 32 36 39 47
4 39 36 32 31
4 31 40 29 51
4 31 29 40 28
4 53 29 40 51
4 53 40 29 28
5 0 8 20 11 37
5 11 20 10 3 38
5 8 1 9 20 39
5 20 9 2 10 40
5 21 12 4 15 41
5 14 21 15 7 42
5 13 5 12 21 43
5 6 13 21 14 44
5 22 8 0 16 45
5 12 22 16 4 46
5 17 1 8 22 47
5 5 17 22 12 48
5 23 9 1 17 49
5 13 23 17 5 50
5 18 2 9 23 51
5 6 18 23 13 52
5 24 10 2 18 53
5 14 24 18 6 54
5 19 3 10 24 55
5 7 19 24 14 56
5 25 11 3 19 57
5 15 25 19 7 58
5 16 0 11 25 59
5 4 16 25 15 60

CELL_TYPES 205
10
10
10
10
10
10
10
10
10
10
10
10
10
10
10
10
10
10
10
10
10
10
10
10
10
10
10
10
10
10
10
10
10
10
10
10
10
10
10
10
10
10
10
10
10
10
10
10
10
10
10
10
10
10
10
10
10
10
10
10
10
10
10
10
10
10
10
10
10
10
10
10
10
10
10
10
10
10
10
10
10
10
10
10
10
10
10
10
10
10
10
10
10
10
10
10
10
10
10
10
10
10
10
10
10
10
10
10
10
10
10
10
10
10
10
10
10
10
10
10
10
10
10
10
10
10
10
10
10
10
10
10
10
10
10
10
10
10
10
10
10
10
10
10
10
10
10
10
10
10
10
10
10
10
10
10
10
10
10
10
10
10
10
10
10
10
10
10
10
10
10
10
10
10
10
10
10
10
10
10
10
14
14
14
14
14
14
14
14
14
14
14
14
14
14
14
14
14
14
14
14
14
14
14
14

CELL_DATA 205
SCALARS CellEntityIds int 1
LOOKUP_TABLE default
1
1
1
1
1
1
1
1
1
1
1
1
1
1
1
1
1
1
1
1
1
1
1
1
1
1
1
1
1
1
1
1
1
1
1
1
1
1
1
1
1
1
1
1
1
1
1
1
1
1
1
1
1
1
1
1
1
1
1
1
1
1
1
1
1
1
1
1
1
1
1
1
1
1
1
1
1
1
1
1
1
1
1
1
1
1
1
1
1
1
1
1
1
1
1
1
1
1
1
1
1
1
1
1
1
1
1
1
1
1
1
1
1
1
1
1
1
1
1
1
1
1
1
1
1
1
1
1
1
1
1
1
1
1
1
1
1
1
1
1
1
1
1
1
1
1
1
1
1
1
1
1
1
1
1
1
1
1
1
1
1
1
1
1
1
1
1
1
1
1
1
1
1
1
1
1
1
1
1
1
1
1
1
1
1
1
1
1
1
1
1
1
1
1
1
1
1
1
1
1
1
1
1
1
1
