# vtk DataFile Version 2.0
3D, Created by Gmsh 4.12.2 
ASCII
DATASET UNSTRUCTURED_GRID
POINTS 9 double
0 0 0
1 0 0
1 1 0
0 1 0
0 0 1
1 0 1
1 1 1
0 1 1
0.5 0.5 0.5

CELLS 6 30
5 0 1 2 3 8
5 6 5 4 7 8
5 5 1 0 4 8
5 6 2 1 5 8
5 7 3 2 6 8
5 4 0 3 7 8

CELL_TYPES 6
14
14
14
14
14
14

CELL_DATA 6
SCALARS CellEntityIds int 1
LOOKUP_TABLE default
1
1
1
1
1
1
