# vtk DataFile Version 2.0
3D, Created by Gmsh 4.12.2 
ASCII
DATASET UNSTRUCTURED_GRID
POINTS 4 double
0 0 0
1 0 0
0 1 0
0 0 1

CELLS 1 5
4 0 1 2 3

CELL_TYPES 1
10

CELL_DATA 1
SCALARS CellEntityIds int 1
LOOKUP_TABLE default
1
