# vtk DataFile Version 2.0
t1, Created by Gmsh 4.12.2 
ASCII
DATASET UNSTRUCTURED_GRID
POINTS 15 double
0 0 0
1 0 0
1 1 0
0 1 0
0.5 0 0
0.5 1 0
0.25 0 0
0.5 0.5 0
0.25 1 0
0 0.5 0
0.75 0 0
1 0.5 0
0.75 1 0
0.25 0.5 0
0.75 0.5 0

CELLS 2 20
9 0 4 5 3 6 7 8 9 13
9 4 1 2 5 10 11 12 7 14

CELL_TYPES 2
28
28

CELL_DATA 2
SCALARS CellEntityIds int 1
LOOKUP_TABLE default
1
1
