# vtk DataFile Version 2.0
test, Created by Gmsh 4.12.2 
ASCII
DATASET UNSTRUCTURED_GRID
POINTS 171 double
0 0 0
1 0 0
1 1 0
0 1 0
0.499999999998694 0 0
0.09999999999981748 0 0
0.1999999999995593 0 0
0.2999999999992708 0 0
0.3999999999989824 0 0
0.5999999999989551 0 0
0.6999999999992164 0 0
0.7999999999994776 0 0
0.8999999999997388 0 0
1 0.5000000000020591 0
1 0.9000000000002791 0
1 0.8000000000007566 0
1 0.7000000000011997 0
1 0.6000000000016086 0
1 0.4000000000016473 0
1 0.3000000000012354 0
1 0.2000000000008235 0
1 0.1000000000004116 0
0.5000000000020591 1 0
0.9000000000002791 1 0
0.8000000000007566 1 0
0.7000000000011997 1 0
0.6000000000016086 1 0
0.4000000000016473 1 0
0.3000000000012354 1 0
0.2000000000008235 1 0
0.1000000000004116 1 0
0 0.5000000000020591 0
0 0.9000000000002791 0
0 0.8000000000007566 0
0 0.7000000000011997 0
0 0.6000000000016086 0
0 0.4000000000016473 0
0 0.3000000000012354 0
0 0.2000000000008235 0
0 0.1000000000004116 0
0.5000407391734344 0.5008681601800632 0
0.3535353995009651 0.353837357072897 0
0.6455331172539379 0.649428612098448 0
0.4707070798991482 0.0707674714145794 0
0.4414141597996024 0.1415349428291588 0
0.4121212397000567 0.2123024142437382 0
0.3828283196005109 0.2830698856583176 0
0.2828283196007721 0.3830698856587294 0
0.2121212397005791 0.4123024142445618 0
0.141414159800386 0.4415349428303943 0
0.07070707990019304 0.4707674714162267 0
0.07656566392011792 0.3766139771329813 0
0.09414141597989259 0.09415349428324521 0
0.3765656639193403 0.07661397713174585 0
0.3062626556804141 0.3064559085269835 0
0.0824242479400428 0.282460482849736 0
0.08828283195996769 0.1883069885664906 0
0.1882828319597246 0.08830698856607877 0
0.2824242479395325 0.08246048284891228 0
0.3531313278396982 0.1532279542634917 0
0.3296969917600562 0.2298419313952377 0
0.2296969917603174 0.3298419313956494 0
0.1531313278402207 0.3532279542643154 0
0.1648484958800553 0.2649209656982366 0
0.1765656639198899 0.1766139771321577 0
0.2648484958797941 0.1649209656978247 0
0.2472727438200558 0.247381448546737 0
0.5291066234524349 0.9298857224196896 0
0.5582132469028106 0.8597714448393792 0
0.5873198703531864 0.7896571672590688 0
0.6164264938035622 0.7195428896787583 0
0.7164264938031504 0.6195428896791703 0
0.7873198703523627 0.5896571672598925 0
0.8582132469015752 0.5597714448406147 0
0.9291066234507876 0.5298857224213369 0
0.6232852987619169 0.9239085779358074 0
0.6931411950428419 0.6956343117433283 0
0.9232852987606859 0.6239085779370386 0
0.9058213246903808 0.9059771444841612 0
0.6465705975222253 0.8478171558716546 0
0.6698558962825337 0.771725733807495 0
0.7698558962821302 0.6717257338078985 0
0.8465705975214113 0.6478171558724685 0
0.9174639740705842 0.7179314334527733 0
0.9116426493804826 0.8119542889684811 0
0.8116426493809203 0.9119542889680434 0
0.7174639740714323 0.9179314334519253 0
0.7349279481416648 0.8358628669039302 0
0.7523919222118975 0.7537943003559211 0
0.8349279481412477 0.7358628669043474 0
0.8232852987610839 0.8239085779362056 0
0.1000081478346869 0.9001736320360126 0
0.2000162956693738 0.8003472640720253 0
0.3000244435040607 0.7005208961080378 0
0.4000325913387475 0.6006945281440506 0
0.5291392147895351 0.5305802505637401 0
0.5582376904056358 0.5602923409474171 0
0.5873361660217365 0.5900044313310941 0
0.6164346416378372 0.6197165217147711 0
0.1858278429582363 0.9061160501127479 0
0.4433113718317104 0.6244642004509922 0
0.5731477133105992 0.6957732173718169 0
0.4432869283288852 0.9239433043429541 0
0.271655685916061 0.8122321002254961 0
0.3574835288738858 0.7183481503382441 0
0.4865901523246733 0.6482338727579338 0
0.5298689328176364 0.6720035450648754 0
0.5298607849833613 0.7718299130288626 0
0.4865738566561232 0.8478866086859085 0
0.3574672332053356 0.9180008862662189 0
0.271647538081786 0.9120584681894834 0
0.3432950761627483 0.8241169363789668 0
0.4149426142437109 0.7361754045684501 0
0.4724016996135361 0.7540026587986564 0
0.4149344664094359 0.8360017725324378 0
0.9000081478346869 0.1001736320360126 0
0.8000162956693737 0.2003472640720253 0
0.7000244435040606 0.3005208961080379 0
0.6000325913387474 0.4006945281440506 0
0.4707396712389406 0.4714619995586299 0
0.4414386033044467 0.4420558389371967 0
0.4121375353699528 0.4126496783157634 0
0.382836467435459 0.3832435176943302 0
0.814147934247579 0.094292399911726 0
0.5565917369911001 0.377169599646904 0
0.4262691739481581 0.3065948141554642 0
0.5565672934862559 0.07664870353886605 0
0.7282958684954195 0.188584799823452 0
0.6424438027432599 0.282877199735178 0
0.5131508826434528 0.3536446711497574 0
0.4697100282958054 0.3301197426526108 0
0.4697018804608574 0.2299461106165982 0
0.5131345869735566 0.1532974070777321 0
0.6424275070733636 0.0825299356631527 0
0.7282877206604714 0.08841116778743935 0
0.6565754413214652 0.1768223355748787 0
0.5848631619824591 0.2652335033623181 0
0.5272825212216581 0.2475898069894581 0
0.584855014147511 0.1650598713263054 0
0.09414793424778811 0.8142923999119492 0
0.07656729348709179 0.5566487035401529 0
0.3062691739483671 0.4265948141557859 0
0.3765917369911524 0.5571695996469599 0
0.08828772066088934 0.7284111677880446 0
0.08242750707399057 0.6425299356641124 0
0.1531345869741835 0.5132974070786973 0
0.2297018804612754 0.4699461106172416 0
0.3297100282959622 0.4701197426528506 0
0.3531508826435573 0.5136446711499087 0
0.2824438027433643 0.6428771997352896 0
0.1882958684955762 0.7285847998236195 0
0.1765754413217787 0.6568223355753326 0
0.1648550141479811 0.5850598713270253 0
0.2472825212219717 0.5275898069899378 0
0.264863161982668 0.5852335033626206 0
0.905827842957907 0.1861160501130774 0
0.9232869283275675 0.443943304344272 0
0.6931477133102697 0.5757732173721463 0
0.6233113718316281 0.4444642004510744 0
0.9116475380811272 0.2720584681901422 0
0.9174672332043473 0.3580008862672072 0
0.8465738566551348 0.4878866086868968 0
0.7698607849827024 0.5318299130295217 0
0.6698689328173892 0.5320035450651224 0
0.6465901523245086 0.4882338727580984 0
0.717483528873721 0.3583481503384088 0
0.8116556859158141 0.2722321002257431 0
0.8232950761622543 0.3441169363794609 0
0.8349344664086946 0.4160017725331788 0
0.752401699613042 0.4740026587991507 0
0.7349426142433815 0.4161754045687797 0

CELLS 6 222
36 31 0 4 41 36 37 38 39 5 6 7 8 43 44 45 46 47 48 49 50 51 52 53 54 55 56 57 58 59 60 61 62 63 64 65 66
36 22 42 13 2 67 68 69 70 71 72 73 74 17 16 15 14 23 24 25 26 75 76 77 78 79 80 81 82 83 84 85 86 87 88 89 90
36 3 40 42 22 91 92 93 94 95 96 97 98 70 69 68 67 27 28 29 30 99 100 101 102 103 104 105 106 107 108 109 110 111 112 113 114
36 1 40 41 4 115 116 117 118 119 120 121 122 46 45 44 43 9 10 11 12 123 124 125 126 127 128 129 130 131 132 133 134 135 136 137 138
36 3 31 41 40 32 33 34 35 50 49 48 47 122 121 120 119 94 93 92 91 139 140 141 142 143 144 145 146 147 148 149 150 151 152 153 154
36 1 13 42 40 21 20 19 18 74 73 72 71 98 97 96 95 118 117 116 115 155 156 157 158 159 160 161 162 163 164 165 166 167 168 169 170

CELL_TYPES 6
9
9
9
9
9
9

CELL_DATA 6
SCALARS CellEntityIds int 1
LOOKUP_TABLE default
1
1
1
1
1
1
