# vtk DataFile Version 2.0
t1, Created by Gmsh 4.12.2 
ASCII
DATASET UNSTRUCTURED_GRID
POINTS 143 double
0 0 0
1 0 0
1 1 0
0 1 0
0.09999999999981467 0 0
0.1999999999995579 0 0
0.2999999999992664 0 0
0.3999999999989749 0 0
0.4999999999986943 0 0
0.5999999999989468 0 0
0.69999999999921 0 0
0.7999999999994734 0 0
0.8999999999997368 0 0
1 0.8999999999995836 0
1 0.7999999999999998 0
1 0.7000000000006934 0
1 0.6000000000013869 0
1 0.5000000000020587 0
1 0.4000000000016644 0
1 0.3000000000012483 0
1 0.2000000000008322 0
1 0.100000000000416 0
0.8999999999995836 1 0
0.7999999999999998 1 0
0.7000000000006934 1 0
0.6000000000013869 1 0
0.5000000000020587 1 0
0.4000000000016644 1 0
0.3000000000012483 1 0
0.2000000000008322 1 0
0.100000000000416 1 0
0 0.8999999999995836 0
0 0.7999999999999998 0
0 0.7000000000006934 0
0 0.6000000000013869 0
0 0.5000000000020587 0
0 0.4000000000016644 0
0 0.3000000000012483 0
0 0.2000000000008322 0
0 0.100000000000416 0
0.5034389775998772 0.9131399837020766 0
0.9071577912435688 0.4408383947033579 0
0.1094945254778414 0.4518776000612237 0
0.5256054226072249 0.1215394958010852 0
0.6956956973331894 0.9188867775012137 0
0.9119501036120489 0.629120292423419 0
0.08884777575843579 0.6207698434959452 0
0.3563289985256459 0.08179793042773495 0
0.9097712726432685 0.2505783557482447 0
0.2971565048620061 0.9068148870181516 0
0.0823591656830875 0.2884714069943496 0
0.7225361326118984 0.0971152262238197 0
0.9109159428759128 0.821765713910978 0
0.09163013929972288 0.810609272611051 0
0.1796488041875021 0.09065265035503163 0
0.4028499149068665 0.9093435865572398 0
0.418431835073597 0.8182042641334049 0
0.5182895730274479 0.826188848798735 0
0.4459780037780289 0.7324221377734477 0
0.5380651418264704 0.7410230245445429 0
0.4671307883635769 0.6533997836657993 0
0.4008721756137776 0.6517664916589954 0
0.480519778221573 0.5728919481531419 0
0.569834509911825 0.5773647609293694 0
0.5020946200509806 0.4856226300789686 0
0.4048462791564476 0.4727031444667598 0
0.4314866699501155 0.3659884400394745 0
0.5350199786801338 0.3944908989515635 0
0.3420248463908154 0.3835270836188549 0
0.3130698804496189 0.44812661783401 0
0.3833444622436858 0.2821604715513508 0
0.2820789331448879 0.3218143286595935 0
0.354114866483529 0.2304647453261466 0
0.2852128597318113 0.225849858817 0
0.4744541420127053 0.2243042150782908 0
0.1696504188646835 0.2967414273758161 0
0.3017524058098711 0.7951286162035553 0
0.1876000159976351 0.8131407042012888 0
0.2533321315055034 0.7275284640926892 0
0.1835895334429455 0.7241005619996479 0
0.1950996845909296 0.6206224953693404 0
0.15602106716838 0.5451979041869441 0
0.2669856240639635 0.5329451990418906 0
0.1889044430932493 0.4894492890654609 0
0.3681420869271177 0.5814538420194254 0
0.2292504842221141 0.412013319145635 0
0.08196238647680024 0.3535203952653203 0
0.6144116211732166 0.8305946744178286 0
0.6311614362141503 0.7455916208216827 0
0.8841185081966009 0.3600083636305866 0
0.826886054923177 0.2789291472322087 0
0.8228832395711602 0.1800013388548004 0
0.7467915423410527 0.2548796573374854 0
0.7639281959020457 0.3668741837017448 0
0.6741239892939961 0.3095521538804429 0
0.6552424174376899 0.2061581015090727 0
0.5731595380908578 0.2191076581553323 0
0.6271147091628257 0.4176371581022202 0
0.7183044127172279 0.4681983615745141 0
0.6515826571694943 0.517229535963995 0
0.7347681940955866 0.5700830374834184 0
0.6513711902794196 0.5782574092333812 0
0.7332486455146898 0.6586582670818364 0
0.8219065523862041 0.55492080633075 0
0.8220569468234462 0.6477939822696657 0
0.8214155440420142 0.397420166812966 0
0.910792120687865 0.5312730867644188 0
0.6376644825646351 0.1190939195898642 0
0.4450148904166446 0.09506260857503861 0
0.9105304101675509 0.1840789695338652 0
0.6034283399796154 0.9154940772662676 0
0.7084889647260071 0.8360808372984829 0
0.7624376912608459 0.9224093869547045 0
0.8092356088128203 0.8535708973992618 0
0.9099206664023249 0.7252811764039286 0
0.2608446670631144 0.08164180813861002 0
0.8196872389334771 0.4633561635042786 0
0.3649556416014314 0.7071155044692213 0
0.2923324187812653 0.6658571646581726 0
0.846037339117959 0.9197399836190183 0
0.1950866192827979 0.9055864649778934 0
0.08516567492662239 0.1959125212644157 0
0.8133578673021917 0.09198996417910385 0
0.4927295981374452 0.2997796989443936 0
0.7235184795901594 0.7474511909904475 0
0.1726893340713052 0.1969835616023534 0
0.5549041148787719 0.6580158375683978 0
0.1447803740407104 0.3775080265197046 0
0.09185825166702584 0.7131327439786234 0
0.3934805302023056 0.1768516780659222 0
0.3163771473385137 0.154699748720075 0
0.7374839398773883 0.1889961669060024 0
0.09062816498132098 0.5296063385687524 0
0.590758179674611 0.5003402444162444 0
0.9103899779077186 0.9115926250055747 0
0.09623660134796831 0.9043342831146211 0
0.9061992607468622 0.09396862574393587 0
0.09145723550358215 0.0973107707496384 0
0.5781362134013037 0.1499464317877288 0
0.5619579462005576 0.3054086758735945 0
0.2566741694231364 0.1406962841463453 0
0.6431617144414704 0.660067315410293 0
0.8167560085297128 0.7420425522210317 0

CELLS 122
4 122 91 131 51
4 83 81 132 42
4 77 53 128 79
4 108 43 74 129
4 101 63 133 99
4 50 75 127 86
4 82 83 85 69
4 95 107 51 131
4 80 82 84 118
4 80 79 128 46
4 71 68 69 85
4 80 81 83 82
4 65 84 82 69
4 106 45 104 103
4 93 105 116 98
4 55 40 26 27
4 93 90 89 105
4 18 17 106 41
4 110 87 111 44
4 98 116 103 100
4 45 106 17 16
4 55 56 57 40
4 40 110 25 26
4 23 24 44 112
4 49 55 27 28
4 9 43 108 8
4 50 86 36 37
4 41 89 19 18
4 76 77 79 78
4 19 89 90 48
4 40 57 87 110
4 47 7 8 108
4 51 107 9 10
4 98 97 94 93
4 90 93 94 92
4 98 100 101 99
4 52 114 15 14
4 109 20 19 48
4 104 102 100 103
4 103 116 41 106
4 44 111 113 112
4 56 58 59 57
4 49 76 56 55
4 57 59 88 87
4 7 47 115 6
4 110 44 24 25
4 114 45 16 15
4 84 65 64 62
4 84 62 60 61
4 109 48 90 91
4 65 66 67 64
4 70 71 73 72
4 69 68 66 65
4 6 115 54 5
4 125 73 71 75
4 66 68 71 70
4 89 41 116 105
4 60 58 117 61
4 58 56 76 117
4 79 80 118 78
4 84 61 117 118
4 76 78 118 117
4 76 49 120 77
4 80 46 132 81
4 62 63 126 60
4 107 95 96 138
4 113 119 23 112
4 28 29 120 49
4 37 38 121 50
4 10 11 122 51
4 74 123 66 70
4 34 46 128 33
4 87 88 124 111
4 90 92 131 91
4 36 42 132 35
4 71 85 127 75
4 62 64 133 63
4 13 2 22 134
4 21 136 12 1
4 4 137 39 0
4 31 135 30 3
4 113 142 114 52
4 67 139 94 97
4 98 99 133 97
4 111 124 142 113
4 74 43 138 96
4 36 86 127 42
4 58 60 126 59
4 42 127 85 83
4 102 104 142 124
4 102 124 88 141
4 75 50 121 125
4 125 54 115 140
4 108 129 130 47
4 53 32 33 128
4 70 72 129 74
4 129 72 73 130
4 94 95 131 92
4 66 123 139 67
4 46 34 35 132
4 29 30 135 120
4 38 39 137 121
4 23 119 134 22
4 11 12 136 122
4 97 133 64 67
4 59 126 141 88
4 9 107 138 43
4 14 13 134 52
4 20 109 136 21
4 32 53 135 31
4 5 54 137 4
4 95 94 139 96
4 74 96 139 123
4 100 102 141 101
4 45 114 142 104
4 77 120 135 53
4 113 52 134 119
4 125 121 137 54
4 91 122 136 109
4 63 101 141 126
4 47 130 140 115
4 125 140 130 73

CELL_TYPES 122
9
9
9
9
9
9
9
9
9
9
9
9
9
9
9
9
9
9
9
9
9
9
9
9
9
9
9
9
9
9
9
9
9
9
9
9
9
9
9
9
9
9
9
9
9
9
9
9
9
9
9
9
9
9
9
9
9
9
9
9
9
9
9
9
9
9
9
9
9
9
9
9
9
9
9
9
9
9
9
9
9
9
9
9
9
9
9
9
9
9
9
9
9
9
9
9
9
9
9
9
9
9
9
9
9
9
9
9
9
9
9
9
9
9
9
9
9
9
9
9
9
9

CELL_DATA 122
SCALARS CellEntityIds int 1
LOOKUP_TABLE default
1
1
1
1
1
1
1
1
1
1
1
1
1
1
1
1
1
1
1
1
1
1
1
1
1
1
1
1
1
1
1
1
1
1
1
1
1
1
1
1
1
1
1
1
1
1
1
1
1
1
1
1
1
1
1
1
1
1
1
1
1
1
1
1
1
1
1
1
1
1
1
1
1
1
1
1
1
1
1
1
1
1
1
1
1
1
1
1
1
1
1
1
1
1
1
1
1
1
1
1
1
1
1
1
1
1
1
1
1
1
1
1
1
1
1
1
1
1
1
1
1
1
