# vtk DataFile Version 2.0
t2, Created by Gmsh 4.12.2 
ASCII
DATASET UNSTRUCTURED_GRID
POINTS 155 double
0.0 0.0 0.0
0.5 0.0 0.0
0.5 0.5 0.0
0.0 0.5 0.0
1.0 0.0 0.0
1.0 1.0 0.0
0.0 1.0 0.0
1.0 0.5 0.0
0.5 1.0 0.0
0.1 0.0 0.0
0.2 0.0 0.0
0.3 0.0 0.0
0.4 0.0 0.0
0.5 0.1 0.0
0.5 0.2 0.0
0.5 0.3 0.0
0.5 0.4 0.0
0.4 0.5 0.0
0.3 0.5 0.0
0.2 0.5 0.0
0.1 0.5 0.0
0.0 0.4 0.0
0.0 0.3 0.0
0.0 0.2 0.0
0.0 0.1 0.0
0.6 0.0 0.0
0.7 0.0 0.0
0.8 0.0 0.0
0.9 0.0 0.0
1.0 0.1 0.0
1.0 0.2 0.0
1.0 0.3 0.0
1.0 0.4 0.0
0.9 0.5 0.0
0.8 0.5 0.0
0.7 0.5 0.0
0.6 0.5 0.0
1.0 0.6 0.0
1.0 0.7 0.0
1.0 0.8 0.0
1.0 0.9 0.0
0.9 1.0 0.0
0.8 1.0 0.0
0.7 1.0 0.0
0.6 1.0 0.0
0.5 0.9 0.0
0.5 0.8 0.0
0.5 0.7 0.0
0.5 0.6 0.0
0.4 1.0 0.0
0.3 1.0 0.0
0.2 1.0 0.0
0.1 1.0 0.0
0.0 0.9 0.0
0.0 0.8 0.0
0.0 0.7 0.0
0.0 0.6 0.0
0.08185 0.24433 0.0
0.41767 0.24515 0.0
0.24696 0.06619 0.0
0.24918 0.41387 0.0
0.15037 0.41535 0.0
0.19808 0.33537 0.0
0.3001 0.33776 0.0
0.25 0.24019 0.0
0.41529 0.15009 0.0
0.40735 0.34457 0.0
0.08469 0.15006 0.0
0.09409 0.34182 0.0
0.15789 0.09326 0.0
0.34724 0.4205 0.0
0.34296 0.08624 0.0
0.16073 0.19369 0.0
0.33426 0.19266 0.0
0.23844 0.15871 0.0
0.07321 0.42679 0.0
0.42679 0.42679 0.0
0.07321 0.07321 0.0
0.42679 0.07321 0.0
0.15515 0.2709 0.0
0.34485 0.2709 0.0
0.74517 0.08138 0.0
0.74517 0.41862 0.0
0.9134 0.25 0.0
0.57904 0.24407 0.0
0.91532 0.34958 0.0
0.83529 0.30178 0.0
0.83639 0.19845 0.0
0.74019 0.25 0.0
0.57413 0.15004 0.0
0.5958 0.34096 0.0
0.91519 0.15024 0.0
0.6531 0.41902 0.0
0.84193 0.40595 0.0
0.84293 0.09112 0.0
0.64717 0.09563 0.0
0.69477 0.33978 0.0
0.70024 0.1679 0.0
0.6634 0.26523 0.0
0.57321 0.42679 0.0
0.92679 0.42679 0.0
0.92679 0.07321 0.0
0.57321 0.07321 0.0
0.77094 0.34488 0.0
0.77094 0.15512 0.0
0.63638 0.19538 0.0
0.74597 0.56675 0.0
0.75082 0.91387 0.0
0.58185 0.74598 0.0
0.91815 0.74433 0.0
0.84963 0.91535 0.0
0.80192 0.83537 0.0
0.69989 0.83777 0.0
0.75 0.74019 0.0
0.5926 0.84466 0.0
0.65762 0.59405 0.0
0.91531 0.65006 0.0
0.58087 0.65298 0.0
0.65275 0.92052 0.0
0.90591 0.84182 0.0
0.84205 0.58726 0.0
0.83419 0.69269 0.0
0.66004 0.69459 0.0
0.7383 0.65885 0.0
0.57321 0.92679 0.0
0.57321 0.57321 0.0
0.92679 0.92679 0.0
0.92679 0.57321 0.0
0.84485 0.7709 0.0
0.65512 0.77094 0.0
0.41815 0.74598 0.0
0.08138 0.74517 0.0
0.25593 0.57904 0.0
0.24918 0.91387 0.0
0.15037 0.91535 0.0
0.19808 0.83537 0.0
0.3001 0.83777 0.0
0.25 0.74019 0.0
0.15904 0.5958 0.0
0.34996 0.57413 0.0
0.4074 0.84466 0.0
0.09402 0.84195 0.0
0.08098 0.6531 0.0
0.4043 0.64729 0.0
0.34725 0.92052 0.0
0.16022 0.69477 0.0
0.33208 0.70028 0.0
0.23477 0.6634 0.0
0.07321 0.92679 0.0
0.42679 0.92679 0.0
0.07321 0.57321 0.0
0.42679 0.57321 0.0
0.15512 0.77094 0.0
0.34401 0.77168 0.0
0.30461 0.63639 0.0

CELLS 268
3 71 73 74
3 59 71 74
3 62 61 68
3 72 69 74
3 63 66 70
3 67 69 72
3 71 65 73
3 62 68 79
3 66 63 80
3 14 15 58
3 18 19 60
3 22 23 57
3 60 62 63
3 10 11 59
3 63 62 64
3 15 16 66
3 19 20 61
3 23 24 67
3 14 58 65
3 60 61 62
3 58 15 66
3 13 14 65
3 60 19 61
3 57 23 67
3 69 59 74
3 21 22 68
3 17 18 70
3 9 10 69
3 11 12 71
3 60 63 70
3 22 57 68
3 18 60 70
3 10 59 69
3 59 11 71
3 57 67 72
3 65 58 73
3 3 21 75
3 2 17 76
3 0 9 77
3 24 0 77
3 20 3 75
3 16 2 76
3 1 13 78
3 12 1 78
3 73 64 74
3 58 66 80
3 64 62 79
3 63 64 80
3 68 57 79
3 72 64 79
3 64 73 80
3 71 12 78
3 17 70 76
3 21 68 75
3 9 69 77
3 66 16 76
3 61 20 75
3 67 24 77
3 13 65 78
3 65 71 78
3 70 66 76
3 68 61 75
3 69 67 77
3 64 72 74
3 57 72 79
3 73 58 80
3 85 93 86
3 87 94 91
3 90 98 96
3 90 96 92
3 93 103 86
3 87 104 94
3 95 105 89
3 97 105 95
3 84 98 90
3 85 86 83
3 32 85 31
3 86 87 83
3 14 84 15
3 31 83 30
3 31 85 83
3 86 88 87
3 27 81 26
3 35 82 34
3 15 90 16
3 87 91 83
3 83 91 30
3 30 91 29
3 14 89 84
3 13 89 14
3 84 90 15
3 36 92 35
3 28 94 27
3 34 93 33
3 26 95 25
3 35 92 82
3 82 93 34
3 27 94 81
3 81 95 26
3 16 99 2
3 2 99 36
3 7 100 32
3 33 100 7
3 29 101 4
3 1 102 13
3 4 101 28
3 25 102 1
3 88 98 97
3 92 96 82
3 81 97 95
3 86 103 88
3 88 104 87
3 98 105 97
3 82 103 93
3 94 104 81
3 88 103 96
3 97 104 88
3 28 101 94
3 95 102 25
3 93 100 33
3 36 99 92
3 90 99 16
3 32 100 85
3 91 101 29
3 13 102 89
3 89 105 84
3 94 101 91
3 89 102 95
3 92 99 90
3 85 100 93
3 96 98 88
3 96 103 82
3 81 104 97
3 84 105 98
3 120 121 123
3 106 120 123
3 110 111 119
3 122 115 123
3 114 112 118
3 120 116 121
3 117 115 122
3 119 111 128
3 112 114 129
3 115 106 123
3 111 112 113
3 38 109 116
3 37 38 116
3 45 46 114
3 110 107 111
3 35 34 106
3 35 106 115
3 41 42 110
3 36 35 115
3 46 108 114
3 38 39 109
3 42 43 107
3 46 47 108
3 111 107 112
3 42 107 110
3 34 33 120
3 47 48 117
3 112 107 118
3 39 40 119
3 43 44 118
3 108 47 117
3 107 43 118
3 109 39 119
3 106 34 120
3 116 109 121
3 8 45 124
3 33 7 127
3 2 36 125
3 48 2 125
3 44 8 124
3 40 5 126
3 5 41 126
3 7 37 127
3 121 113 123
3 114 108 129
3 108 117 122
3 113 112 129
3 111 113 128
3 109 119 128
3 122 113 129
3 113 121 128
3 120 33 127
3 117 48 125
3 119 40 126
3 118 44 124
3 45 114 124
3 41 110 126
3 36 115 125
3 37 116 127
3 114 118 124
3 110 119 126
3 116 120 127
3 115 117 125
3 113 122 123
3 121 109 128
3 108 122 129
3 135 134 141
3 145 138 147
3 136 140 144
3 142 138 145
3 135 141 152
3 140 136 153
3 139 143 154
3 143 146 154
3 138 132 147
3 20 19 138
3 19 18 132
3 50 51 133
3 133 135 136
3 47 46 130
3 130 46 140
3 19 132 138
3 46 45 140
3 54 55 131
3 136 135 137
3 51 52 134
3 18 17 139
3 133 134 135
3 132 18 139
3 133 51 134
3 49 50 144
3 53 54 141
3 55 56 142
3 48 47 143
3 133 136 144
3 54 131 141
3 131 55 142
3 50 133 144
3 47 130 143
3 8 49 149
3 52 6 148
3 6 53 148
3 3 20 150
3 56 3 150
3 17 2 151
3 45 8 149
3 2 48 151
3 146 137 147
3 130 140 153
3 131 142 145
3 143 130 146
3 137 135 152
3 136 137 153
3 146 147 154
3 141 131 152
3 145 137 152
3 137 146 153
3 48 143 151
3 49 144 149
3 142 56 150
3 53 141 148
3 140 45 149
3 134 52 148
3 139 17 151
3 20 138 150
3 132 139 154
3 143 139 151
3 141 134 148
3 138 142 150
3 144 140 149
3 137 145 147
3 131 145 152
3 146 130 153
3 147 132 154

CELL_TYPES 268
5
5
5
5
5
5
5
5
5
5
5
5
5
5
5
5
5
5
5
5
5
5
5
5
5
5
5
5
5
5
5
5
5
5
5
5
5
5
5
5
5
5
5
5
5
5
5
5
5
5
5
5
5
5
5
5
5
5
5
5
5
5
5
5
5
5
5
5
5
5
5
5
5
5
5
5
5
5
5
5
5
5
5
5
5
5
5
5
5
5
5
5
5
5
5
5
5
5
5
5
5
5
5
5
5
5
5
5
5
5
5
5
5
5
5
5
5
5
5
5
5
5
5
5
5
5
5
5
5
5
5
5
5
5
5
5
5
5
5
5
5
5
5
5
5
5
5
5
5
5
5
5
5
5
5
5
5
5
5
5
5
5
5
5
5
5
5
5
5
5
5
5
5
5
5
5
5
5
5
5
5
5
5
5
5
5
5
5
5
5
5
5
5
5
5
5
5
5
5
5
5
5
5
5
5
5
5
5
5
5
5
5
5
5
5
5
5
5
5
5
5
5
5
5
5
5
5
5
5
5
5
5
5
5
5
5
5
5
5
5
5
5
5
5
5
5
5
5
5
5
5
5
5
5
5
5
5
5
5
5
5
5
5
5
5
5
5
5

CELL_DATA 268
SCALARS CellEntityIds int 1
LOOKUP_TABLE default
1
1
1
1
1
1
1
1
1
1
1
1
1
1
1
1
1
1
1
1
1
1
1
1
1
1
1
1
1
1
1
1
1
1
1
1
1
1
1
1
1
1
1
1
1
1
1
1
1
1
1
1
1
1
1
1
1
1
1
1
1
1
1
1
1
1
2
2
2
2
2
2
2
2
2
2
2
2
2
2
2
2
2
2
2
2
2
2
2
2
2
2
2
2
2
2
2
2
2
2
2
2
2
2
2
2
2
2
2
2
2
2
2
2
2
2
2
2
2
2
2
2
2
2
2
2
2
2
2
2
2
2
2
2
3
3
3
3
3
3
3
3
3
3
3
3
3
3
3
3
3
3
3
3
3
3
3
3
3
3
3
3
3
3
3
3
3
3
3
3
3
3
3
3
3
3
3
3
3
3
3
3
3
3
3
3
3
3
3
3
3
3
3
3
3
3
3
3
3
3
4
4
4
4
4
4
4
4
4
4
4
4
4
4
4
4
4
4
4
4
4
4
4
4
4
4
4
4
4
4
4
4
4
4
4
4
4
4
4
4
4
4
4
4
4
4
4
4
4
4
4
4
4
4
4
4
4
4
4
4
4
4
4
4
4
4
4
4
