# vtk DataFile Version 2.0
t1, Created by Gmsh 4.12.2 
ASCII
DATASET UNSTRUCTURED_GRID
POINTS 529 double
0.0 0.0 0.0
1.0 0.0 0.0
1.0 1.0 0.0
0.0 1.0 0.0
0.1 0.0 0.0
0.2 0.0 0.0
0.3 0.0 0.0
0.4 0.0 0.0
0.5 0.0 0.0
0.6 0.0 0.0
0.7 0.0 0.0
0.8 0.0 0.0
0.9 0.0 0.0
0.05 0.0 0.0
0.15 0.0 0.0
0.25 0.0 0.0
0.35 0.0 0.0
0.45 0.0 0.0
0.55 0.0 0.0
0.65 0.0 0.0
0.75 0.0 0.0
0.85 0.0 0.0
0.95 0.0 0.0
1.0 0.9 0.0
1.0 0.8 0.0
1.0 0.7 0.0
1.0 0.6 0.0
1.0 0.5 0.0
1.0 0.4 0.0
1.0 0.3 0.0
1.0 0.2 0.0
1.0 0.1 0.0
1.0 0.95 0.0
1.0 0.85 0.0
1.0 0.75 0.0
1.0 0.65 0.0
1.0 0.55 0.0
1.0 0.45 0.0
1.0 0.35 0.0
1.0 0.25 0.0
1.0 0.15 0.0
1.0 0.05 0.0
0.9 1.0 0.0
0.8 1.0 0.0
0.7 1.0 0.0
0.6 1.0 0.0
0.5 1.0 0.0
0.4 1.0 0.0
0.3 1.0 0.0
0.2 1.0 0.0
0.1 1.0 0.0
0.95 1.0 0.0
0.85 1.0 0.0
0.75 1.0 0.0
0.65 1.0 0.0
0.55 1.0 0.0
0.45 1.0 0.0
0.35 1.0 0.0
0.25 1.0 0.0
0.15 1.0 0.0
0.05 1.0 0.0
0.0 0.9 0.0
0.0 0.8 0.0
0.0 0.7 0.0
0.0 0.6 0.0
0.0 0.5 0.0
0.0 0.4 0.0
0.0 0.3 0.0
0.0 0.2 0.0
0.0 0.1 0.0
0.0 0.95 0.0
0.0 0.85 0.0
0.0 0.75 0.0
0.0 0.65 0.0
0.0 0.55 0.0
0.0 0.45 0.0
0.0 0.35 0.0
0.0 0.25 0.0
0.0 0.15 0.0
0.0 0.05 0.0
0.50344 0.91314 0.0
0.90716 0.44084 0.0
0.10949 0.45188 0.0
0.52561 0.12154 0.0
0.6957 0.91889 0.0
0.91195 0.62912 0.0
0.08885 0.62077 0.0
0.35633 0.0818 0.0
0.90977 0.25058 0.0
0.29716 0.90681 0.0
0.08236 0.28847 0.0
0.72254 0.09712 0.0
0.91092 0.82177 0.0
0.09163 0.81061 0.0
0.17965 0.09065 0.0
0.40285 0.90934 0.0
0.41843 0.8182 0.0
0.51829 0.82619 0.0
0.44598 0.73242 0.0
0.53807 0.74102 0.0
0.46713 0.6534 0.0
0.40087 0.65177 0.0
0.48052 0.57289 0.0
0.56983 0.57736 0.0
0.50209 0.48562 0.0
0.40485 0.4727 0.0
0.43149 0.36599 0.0
0.53502 0.39449 0.0
0.34202 0.38353 0.0
0.31307 0.44813 0.0
0.38334 0.28216 0.0
0.28208 0.32181 0.0
0.35411 0.23046 0.0
0.28521 0.22585 0.0
0.47445 0.2243 0.0
0.16965 0.29674 0.0
0.30175 0.79513 0.0
0.1876 0.81314 0.0
0.25333 0.72753 0.0
0.18359 0.7241 0.0
0.1951 0.62062 0.0
0.15602 0.5452 0.0
0.26699 0.53295 0.0
0.1889 0.48945 0.0
0.36814 0.58145 0.0
0.22925 0.41201 0.0
0.08196 0.35352 0.0
0.61441 0.83059 0.0
0.63116 0.74559 0.0
0.88412 0.36001 0.0
0.82689 0.27893 0.0
0.82288 0.18 0.0
0.74679 0.25488 0.0
0.76393 0.36687 0.0
0.67412 0.30955 0.0
0.65524 0.20616 0.0
0.57316 0.21911 0.0
0.62711 0.41764 0.0
0.7183 0.4682 0.0
0.65158 0.51723 0.0
0.73477 0.57008 0.0
0.65137 0.57826 0.0
0.73325 0.65866 0.0
0.82191 0.55492 0.0
0.82206 0.64779 0.0
0.82142 0.39742 0.0
0.91079 0.53127 0.0
0.63766 0.11909 0.0
0.44501 0.09506 0.0
0.91053 0.18408 0.0
0.60343 0.91549 0.0
0.70849 0.83608 0.0
0.76244 0.92241 0.0
0.80924 0.85357 0.0
0.90992 0.72528 0.0
0.26084 0.08164 0.0
0.81969 0.46336 0.0
0.36496 0.70712 0.0
0.29233 0.66586 0.0
0.84604 0.91974 0.0
0.19509 0.90559 0.0
0.08517 0.19591 0.0
0.81336 0.09199 0.0
0.49273 0.29978 0.0
0.72352 0.74745 0.0
0.17269 0.19698 0.0
0.5549 0.65802 0.0
0.14478 0.37751 0.0
0.09186 0.71313 0.0
0.39348 0.17685 0.0
0.31638 0.1547 0.0
0.73748 0.189 0.0
0.09063 0.52961 0.0
0.59076 0.50034 0.0
0.91039 0.91159 0.0
0.09624 0.90433 0.0
0.9062 0.09397 0.0
0.09146 0.09731 0.0
0.57814 0.14995 0.0
0.56196 0.30541 0.0
0.25667 0.1407 0.0
0.64316 0.66007 0.0
0.81676 0.74204 0.0
0.81812 0.136 0.0
0.78018 0.1845 0.0
0.73001 0.14306 0.0
0.76795 0.09455 0.0
0.77407 0.13953 0.0
0.17246 0.51732 0.0
0.12332 0.5374 0.0
0.10006 0.49074 0.0
0.1492 0.47066 0.0
0.13626 0.50403 0.0
0.13962 0.81187 0.0
0.09174 0.76187 0.0
0.13772 0.71862 0.0
0.18559 0.76862 0.0
0.13867 0.76525 0.0
0.48531 0.1083 0.0
0.50003 0.17292 0.0
0.43397 0.20058 0.0
0.41925 0.13596 0.0
0.45964 0.15444 0.0
0.6106 0.57781 0.0
0.5803 0.53885 0.0
0.62117 0.50878 0.0
0.65148 0.54774 0.0
0.61589 0.5433 0.0
0.126 0.29261 0.0
0.15722 0.33712 0.0
0.11337 0.36551 0.0
0.08216 0.321 0.0
0.11969 0.32906 0.0
0.22795 0.5112 0.0
0.20908 0.45073 0.0
0.27116 0.43007 0.0
0.29003 0.49054 0.0
0.24955 0.47063 0.0
0.64645 0.16263 0.0
0.6801 0.1081 0.0
0.69636 0.19758 0.0
0.68823 0.15284 0.0
0.23104 0.57678 0.0
0.31756 0.5572 0.0
0.33024 0.62366 0.0
0.24372 0.64324 0.0
0.28064 0.60022 0.0
0.18934 0.67236 0.0
0.09035 0.66695 0.0
0.14197 0.6207 0.0
0.13985 0.66966 0.0
0.31205 0.35267 0.0
0.32755 0.41583 0.0
0.25566 0.36691 0.0
0.29161 0.39137 0.0
0.17556 0.58291 0.0
0.20175 0.54705 0.0
0.38649 0.52708 0.0
0.35896 0.46041 0.0
0.33826 0.50881 0.0
0.91137 0.5802 0.0
0.867 0.63846 0.0
0.82198 0.60136 0.0
0.86635 0.5431 0.0
0.86668 0.59078 0.0
0.79267 0.38215 0.0
0.82055 0.43039 0.0
0.769 0.46578 0.0
0.74112 0.41754 0.0
0.78083 0.42396 0.0
0.45314 0.91124 0.0
0.50172 0.95657 0.0
0.40142 0.95467 0.0
0.45157 0.95562 0.0
0.79541 0.3229 0.0
0.8555 0.31947 0.0
0.85277 0.37871 0.0
0.82409 0.35081 0.0
0.9554 0.51564 0.0
0.90897 0.48606 0.0
0.95358 0.42042 0.0
0.95449 0.46803 0.0
0.60892 0.87304 0.0
0.66145 0.83334 0.0
0.70209 0.87748 0.0
0.64956 0.91719 0.0
0.65551 0.87526 0.0
0.8208 0.50914 0.0
0.77834 0.5625 0.0
0.72654 0.51914 0.0
0.77367 0.51414 0.0
0.95598 0.61456 0.0
0.95569 0.5651 0.0
0.41064 0.86377 0.0
0.46836 0.8222 0.0
0.51086 0.86966 0.0
0.46075 0.86672 0.0
0.55343 0.91432 0.0
0.60171 0.95775 0.0
0.55172 0.95716 0.0
0.69785 0.95944 0.0
0.72907 0.92065 0.0
0.78122 0.9612 0.0
0.73953 0.96032 0.0
0.35 0.90808 0.0
0.29858 0.95341 0.0
0.35 0.95404 0.0
0.5628 0.06077 0.0
0.47251 0.04753 0.0
0.51766 0.05415 0.0
0.04098 0.37676 0.0
0.04118 0.29424 0.0
0.04108 0.3355 0.0
0.89564 0.40042 0.0
0.94206 0.33 0.0
0.94782 0.37521 0.0
0.24468 0.80413 0.0
0.21846 0.72581 0.0
0.27754 0.76133 0.0
0.23157 0.76497 0.0
0.86833 0.26475 0.0
0.95489 0.27529 0.0
0.90519 0.29738 0.0
0.56635 0.82839 0.0
0.55989 0.87135 0.0
0.37816 0.0409 0.0
0.40067 0.08843 0.0
0.42534 0.04422 0.0
0.61883 0.05955 0.0
0.71127 0.04856 0.0
0.66505 0.05405 0.0
0.67271 0.44292 0.0
0.65062 0.36359 0.0
0.71903 0.33821 0.0
0.69587 0.39057 0.0
0.71046 0.28222 0.0
0.78684 0.2669 0.0
0.75293 0.30256 0.0
0.69307 0.57417 0.0
0.68494 0.49271 0.0
0.68901 0.53344 0.0
0.91042 0.77352 0.0
0.95496 0.71264 0.0
0.95546 0.81088 0.0
0.95521 0.76176 0.0
0.95527 0.19204 0.0
0.91015 0.21733 0.0
0.95508 0.23366 0.0
0.77765 0.65323 0.0
0.73401 0.61437 0.0
0.778 0.60786 0.0
0.86342 0.4521 0.0
0.86489 0.4976 0.0
0.75886 0.84483 0.0
0.78584 0.88799 0.0
0.74396 0.88274 0.0
0.4322 0.77531 0.0
0.49202 0.73672 0.0
0.52818 0.78361 0.0
0.48019 0.77946 0.0
0.29945 0.85097 0.0
0.36009 0.80667 0.0
0.35505 0.85737 0.0
0.58461 0.74331 0.0
0.62279 0.78809 0.0
0.57548 0.78585 0.0
0.30859 0.08172 0.0
0.28042 0.04082 0.0
0.32929 0.04086 0.0
0.64978 0.9586 0.0
0.91094 0.6772 0.0
0.95547 0.6636 0.0
0.45347 0.47916 0.0
0.49131 0.52926 0.0
0.42433 0.57717 0.0
0.4389 0.52817 0.0
0.47383 0.61315 0.0
0.434 0.65258 0.0
0.38451 0.61661 0.0
0.42917 0.61488 0.0
0.82488 0.22947 0.0
0.86671 0.18204 0.0
0.86752 0.2234 0.0
0.41817 0.41935 0.0
0.48325 0.38024 0.0
0.51856 0.44006 0.0
0.46836 0.4297 0.0
0.33271 0.30199 0.0
0.28365 0.27383 0.0
0.31966 0.22816 0.0
0.36873 0.25631 0.0
0.32619 0.26507 0.0
0.38676 0.37476 0.0
0.37286 0.41759 0.0
0.22025 0.08615 0.0
0.18982 0.04533 0.0
0.23512 0.04307 0.0
0.22895 0.21142 0.0
0.22586 0.30928 0.0
0.17117 0.24686 0.0
0.22741 0.26035 0.0
0.40742 0.32407 0.0
0.35973 0.33837 0.0
0.85809 0.41541 0.0
0.45655 0.69291 0.0
0.40547 0.71977 0.0
0.38291 0.67944 0.0
0.41973 0.68618 0.0
0.33335 0.75112 0.0
0.38278 0.76322 0.0
0.27283 0.69669 0.0
0.23109 0.68453 0.0
0.32864 0.68649 0.0
0.35658 0.65155 0.0
0.30309 0.72391 0.0
0.24612 0.9062 0.0
0.19134 0.85936 0.0
0.2454 0.85517 0.0
0.08974 0.57519 0.0
0.13265 0.57905 0.0
0.52518 0.57513 0.0
0.56237 0.61769 0.0
0.51102 0.65571 0.0
0.5181 0.61542 0.0
0.6142 0.21263 0.0
0.57565 0.18453 0.0
0.6079 0.13452 0.0
0.61105 0.17358 0.0
0.82764 0.88666 0.0
0.82302 0.95987 0.0
0.80443 0.92393 0.0
0.19754 0.95279 0.0
0.24806 0.9531 0.0
0.04258 0.19796 0.0
0.08376 0.24219 0.0
0.04188 0.2461 0.0
0.80668 0.04599 0.0
0.75897 0.04728 0.0
0.48359 0.26204 0.0
0.46211 0.33288 0.0
0.4289 0.25323 0.0
0.4455 0.29306 0.0
0.04442 0.61038 0.0
0.04593 0.70657 0.0
0.04518 0.65848 0.0
0.67734 0.74652 0.0
0.716 0.79177 0.0
0.6694 0.78993 0.0
0.74214 0.22194 0.0
0.78351 0.2257 0.0
0.05475 0.42594 0.0
0.04531 0.5148 0.0
0.05003 0.47037 0.0
0.18702 0.39476 0.0
0.20644 0.35202 0.0
0.54643 0.49298 0.0
0.5358 0.53405 0.0
0.90519 0.9558 0.0
0.95519 0.9058 0.0
0.9526 0.9529 0.0
0.9531 0.09698 0.0
0.9031 0.04698 0.0
0.95155 0.04849 0.0
0.09573 0.04866 0.0
0.04573 0.09866 0.0
0.04786 0.04933 0.0
0.04812 0.90217 0.0
0.09812 0.95217 0.0
0.04906 0.95108 0.0
0.813 0.79781 0.0
0.86334 0.73366 0.0
0.86008 0.83767 0.0
0.86171 0.78567 0.0
0.54849 0.34995 0.0
0.61804 0.30748 0.0
0.58107 0.40606 0.0
0.59955 0.35677 0.0
0.60894 0.45899 0.0
0.64694 0.47585 0.0
0.77014 0.74475 0.0
0.7645 0.79479 0.0
0.55187 0.13574 0.0
0.52381 0.22171 0.0
0.53784 0.17872 0.0
0.12714 0.41469 0.0
0.08406 0.39573 0.0
0.54648 0.69952 0.0
0.50152 0.69622 0.0
0.16811 0.43271 0.0
0.81941 0.69492 0.0
0.72838 0.70305 0.0
0.7739 0.69899 0.0
0.63716 0.70283 0.0
0.68821 0.65936 0.0
0.68277 0.70294 0.0
0.12893 0.19645 0.0
0.12747 0.24453 0.0
0.17617 0.14382 0.0
0.25876 0.11117 0.0
0.21468 0.16884 0.0
0.21746 0.12749 0.0
0.35493 0.16578 0.0
0.33635 0.11825 0.0
0.3778 0.1271 0.0
0.04582 0.8053 0.0
0.04587 0.75594 0.0
0.3738 0.20366 0.0
0.40135 0.22845 0.0
0.3008 0.19027 0.0
0.3373 0.19697 0.0
0.66468 0.25786 0.0
0.70341 0.2399 0.0
0.52734 0.30259 0.0
0.5053 0.34142 0.0
0.04487 0.56259 0.0
0.14566 0.90496 0.0
0.14783 0.95248 0.0
0.08831 0.14661 0.0
0.04416 0.14831 0.0
0.87821 0.91567 0.0
0.86411 0.95783 0.0
0.85978 0.09298 0.0
0.85489 0.04649 0.0
0.56375 0.44952 0.0
0.59903 0.65904 0.0
0.59182 0.70117 0.0
0.58535 0.09764 0.0
0.91065 0.86668 0.0
0.95533 0.85834 0.0
0.90836 0.13902 0.0
0.95418 0.14451 0.0
0.09393 0.85747 0.0
0.04697 0.85374 0.0
0.13555 0.09398 0.0
0.14278 0.04699 0.0
0.56756 0.26226 0.0
0.61612 0.26006 0.0
0.52558 0.26215 0.0
0.64727 0.61916 0.0
0.69064 0.61677 0.0
0.86517 0.68606 0.0
0.14264 0.85842 0.0
0.86914 0.87667 0.0
0.13224 0.14521 0.0
0.86324 0.13751 0.0
0.60482 0.61843 0.0
0.28653 0.1477 0.0
0.29756 0.11471 0.0
0.25774 0.17956 0.0

CELLS 122
9 162 131 171 91 183 184 185 186 187
9 123 121 172 82 188 189 190 191 192
9 117 93 168 119 193 194 195 196 197
9 148 83 114 169 198 199 200 201 202
9 141 103 173 139 203 204 205 206 207
9 90 115 167 126 208 209 210 211 212
9 122 123 125 109 213 214 215 216 217
9 135 147 91 171 218 219 185 220 221
9 120 122 124 158 222 223 224 225 226
9 120 119 168 86 227 195 228 229 230
9 111 108 109 125 231 232 215 233 234
9 120 121 123 122 235 188 213 222 236
9 105 124 122 109 237 223 216 238 239
9 146 85 144 143 240 241 242 243 244
9 133 145 156 138 245 246 247 248 249
9 95 80 46 47 250 251 56 252 253
9 133 130 129 145 254 255 256 245 257
9 28 27 146 81 37 258 259 260 261
9 150 127 151 84 262 263 264 265 266
9 138 156 143 140 247 267 268 269 270
9 85 146 27 26 240 258 36 271 272
9 95 96 97 80 273 274 275 250 276
9 80 150 45 46 277 278 55 251 279
9 43 44 84 152 53 280 281 282 283
9 89 95 47 48 284 252 57 285 286
9 9 83 148 8 287 198 288 18 289
9 90 126 66 67 211 290 76 291 292
9 81 129 29 28 293 294 38 260 295
9 116 117 119 118 296 196 297 298 299
9 29 129 130 88 294 255 300 301 302
9 80 97 127 150 275 303 262 277 304
9 87 7 8 148 305 17 288 306 307
9 91 147 9 10 219 308 19 309 310
9 138 137 134 133 311 312 313 248 314
9 130 133 134 132 254 313 315 316 317
9 138 140 141 139 269 318 206 319 320
9 92 154 25 24 321 322 34 323 324
9 149 30 29 88 325 39 301 326 327
9 144 142 140 143 328 329 268 242 330
9 143 156 81 146 267 331 259 243 332
9 84 151 153 152 264 333 334 281 335
9 96 98 99 97 336 337 338 274 339
9 89 116 96 95 340 341 273 284 342
9 97 99 128 127 338 343 344 303 345
9 7 87 155 6 305 346 347 16 348
9 150 84 44 45 265 280 54 278 349
9 154 85 26 25 350 271 35 322 351
9 124 105 104 102 237 352 353 354 355
9 124 102 100 101 354 356 357 358 359
9 149 88 130 131 326 300 360 361 362
9 105 106 107 104 363 364 365 352 366
9 110 111 113 112 367 368 369 370 371
9 109 108 106 105 232 372 363 238 373
9 6 155 94 5 347 374 375 15 376
9 165 113 111 115 377 368 378 379 380
9 106 108 111 110 372 231 367 381 382
9 129 81 156 145 293 331 246 256 383
9 100 98 157 101 384 385 386 357 387
9 98 96 116 157 336 341 388 385 389
9 119 120 158 118 227 225 390 297 391
9 124 101 157 158 358 386 392 224 393
9 116 118 158 157 298 390 392 388 394
9 116 89 160 117 340 395 396 296 397
9 120 86 172 121 229 398 189 235 399
9 102 103 166 100 400 401 402 356 403
9 147 135 136 178 218 404 405 406 407
9 153 159 43 152 408 409 282 334 410
9 48 49 160 89 58 411 395 285 412
9 67 68 161 90 77 413 414 291 415
9 10 11 162 91 20 416 186 309 417
9 114 163 106 110 418 419 381 420 421
9 64 86 168 63 422 228 423 73 424
9 127 128 164 151 344 425 426 263 427
9 130 132 171 131 316 428 184 360 429
9 66 82 172 65 430 190 431 75 432
9 111 125 167 115 233 433 209 378 434
9 102 104 173 103 353 435 204 400 436
9 23 2 42 174 32 51 437 438 439
9 31 176 12 1 440 441 22 41 442
9 4 177 69 0 443 444 79 13 445
9 61 175 50 3 446 447 60 70 448
9 153 182 154 92 449 450 321 451 452
9 107 179 134 137 453 454 312 455 456
9 138 139 173 137 319 205 457 311 458
9 151 164 182 153 426 459 449 333 460
9 114 83 178 136 199 461 405 462 463
9 66 126 167 82 290 210 464 430 465
9 98 100 166 99 384 402 466 337 467
9 82 167 125 123 464 433 214 191 468
9 142 144 182 164 328 469 459 470 471
9 142 164 128 181 470 425 472 473 474
9 115 90 161 165 208 414 475 379 476
9 165 94 155 180 477 374 478 479 480
9 148 169 170 87 201 481 482 306 483
9 93 62 63 168 484 72 423 194 485
9 110 112 169 114 370 486 200 420 487
9 169 112 113 170 486 369 488 481 489
9 134 135 171 132 490 220 428 315 491
9 106 163 179 107 419 492 453 364 493
9 86 64 65 172 422 74 431 398 494
9 49 50 175 160 59 447 495 411 496
9 68 69 177 161 78 444 497 413 498
9 43 159 174 42 409 499 437 52 500
9 11 12 176 162 21 441 501 416 502
9 137 173 104 107 457 435 365 455 503
9 99 166 181 128 466 504 472 343 505
9 9 147 178 83 308 406 461 287 506
9 24 23 174 92 33 438 507 323 508
9 30 149 176 31 325 509 440 40 510
9 62 93 175 61 484 511 446 71 512
9 5 94 177 4 375 513 443 14 514
9 135 134 179 136 490 454 515 404 516
9 114 136 179 163 462 515 492 418 517
9 140 142 181 141 329 473 518 318 519
9 85 154 182 144 350 450 469 241 520
9 117 160 175 93 396 495 511 193 521
9 153 92 174 159 451 507 499 408 522
9 165 161 177 94 475 497 513 477 523
9 131 162 176 149 183 501 509 361 524
9 103 141 181 166 203 518 504 401 525
9 87 170 180 155 482 526 478 346 527
9 165 180 170 113 479 526 488 377 528

CELL_TYPES 122
28
28
28
28
28
28
28
28
28
28
28
28
28
28
28
28
28
28
28
28
28
28
28
28
28
28
28
28
28
28
28
28
28
28
28
28
28
28
28
28
28
28
28
28
28
28
28
28
28
28
28
28
28
28
28
28
28
28
28
28
28
28
28
28
28
28
28
28
28
28
28
28
28
28
28
28
28
28
28
28
28
28
28
28
28
28
28
28
28
28
28
28
28
28
28
28
28
28
28
28
28
28
28
28
28
28
28
28
28
28
28
28
28
28
28
28
28
28
28
28
28
28

CELL_DATA 122
SCALARS CellEntityIds int 1
LOOKUP_TABLE default
1
1
1
1
1
1
1
1
1
1
1
1
1
1
1
1
1
1
1
1
1
1
1
1
1
1
1
1
1
1
1
1
1
1
1
1
1
1
1
1
1
1
1
1
1
1
1
1
1
1
1
1
1
1
1
1
1
1
1
1
1
1
1
1
1
1
1
1
1
1
1
1
1
1
1
1
1
1
1
1
1
1
1
1
1
1
1
1
1
1
1
1
1
1
1
1
1
1
1
1
1
1
1
1
1
1
1
1
1
1
1
1
1
1
1
1
1
1
1
1
1
1
