# vtk DataFile Version 2.0
t1, Created by Gmsh 4.12.2 
ASCII
DATASET UNSTRUCTURED_GRID
POINTS 33 double
0 0 0
1 0 0
1 1 0
0 1 0
0.499999999998694 0 0
0.2499999999994194 0 0
0.749999999999347 0 0
1 0.5000000000020591 0
1 0.7500000000009891 0
1 0.2500000000010296 0
0.5000000000020591 1 0
0.7500000000009891 1 0
0.2500000000010296 1 0
0 0.5000000000020591 0
0 0.7500000000009891 0
0 0.2500000000010296 0
0.5000407391734344 0.5008681601800632 0
0.3535353995009651 0.353837357072897 0
0.6455331172539379 0.649428612098448 0
0.4267676997498295 0.1769186785364485 0
0.1767676997504826 0.4269186785374781 0
0.213383849874951 0.2134593392687391 0
0.5727665586279985 0.824714306049224 0
0.822766558626969 0.5747143060502535 0
0.7863832793139791 0.7873571530251066 0
0.2500203695867172 0.7504340800900315 0
0.5727869282136862 0.5751483861392557 0
0.4113934641073578 0.7875741930696278 0
0.7500203695867171 0.2504340800900316 0
0.4267880693371998 0.4273527586264801 0
0.5883940346682733 0.21367637931324 0
0.2133940346685999 0.5886763793137346 0
0.7863934641068431 0.4125741930701426 0

CELLS 6 60
9 13 0 4 17 15 5 19 20 21
9 10 18 7 2 22 23 8 11 24
9 3 16 18 10 25 26 22 12 27
9 1 16 17 4 28 29 19 6 30
9 3 13 17 16 14 20 29 25 31
9 1 7 18 16 9 23 26 28 32

CELL_TYPES 6
28
28
28
28
28
28

CELL_DATA 6
SCALARS CellEntityIds int 1
LOOKUP_TABLE default
1
1
1
1
1
1
