# vtk DataFile Version 2.0
t1, Created by Gmsh 4.12.2 
ASCII
DATASET UNSTRUCTURED_GRID
POINTS 145 double
0.0 0.0 0.0
1.0 0.0 0.0
1.0 1.0 0.0
0.0 1.0 0.0
0.25 0.0 0.0
0.5 0.0 0.0
0.75 0.0 0.0
0.125 0.0 0.0
0.375 0.0 0.0
0.625 0.0 0.0
0.875 0.0 0.0
1.0 0.75 0.0
1.0 0.5 0.0
1.0 0.25 0.0
1.0 0.875 0.0
1.0 0.625 0.0
1.0 0.375 0.0
1.0 0.125 0.0
0.75 1.0 0.0
0.5 1.0 0.0
0.25 1.0 0.0
0.875 1.0 0.0
0.625 1.0 0.0
0.375 1.0 0.0
0.125 1.0 0.0
0.0 0.75 0.0
0.0 0.5 0.0
0.0 0.25 0.0
0.0 0.875 0.0
0.0 0.625 0.0
0.0 0.375 0.0
0.0 0.125 0.0
0.5 0.5 0.0
0.75 0.25 0.0
0.25 0.25 0.0
0.25 0.75 0.0
0.75 0.75 0.0
0.375 0.125 0.0
0.125 0.125 0.0
0.625 0.125 0.0
0.5 0.25 0.0
0.875 0.125 0.0
0.625 0.375 0.0
0.375 0.375 0.0
0.125 0.625 0.0
0.125 0.875 0.0
0.125 0.375 0.0
0.25 0.5 0.0
0.375 0.625 0.0
0.875 0.375 0.0
0.875 0.625 0.0
0.75 0.5 0.0
0.875 0.875 0.0
0.625 0.625 0.0
0.625 0.875 0.0
0.375 0.875 0.0
0.5 0.75 0.0
0.1875 0.0625 0.0
0.0625 0.0625 0.0
0.3125 0.0625 0.0
0.25 0.125 0.0
0.4375 0.0625 0.0
0.3125 0.1875 0.0
0.1875 0.1875 0.0
0.5625 0.0625 0.0
0.5 0.125 0.0
0.5625 0.1875 0.0
0.4375 0.1875 0.0
0.6875 0.1875 0.0
0.625 0.25 0.0
0.375 0.25 0.0
0.6875 0.0625 0.0
0.8125 0.0625 0.0
0.75 0.125 0.0
0.9375 0.0625 0.0
0.8125 0.1875 0.0
0.4375 0.3125 0.0
0.3125 0.3125 0.0
0.5625 0.3125 0.0
0.5 0.375 0.0
0.6875 0.3125 0.0
0.5625 0.4375 0.0
0.4375 0.4375 0.0
0.0625 0.8125 0.0
0.0625 0.9375 0.0
0.0625 0.6875 0.0
0.125 0.75 0.0
0.0625 0.5625 0.0
0.1875 0.6875 0.0
0.1875 0.8125 0.0
0.0625 0.4375 0.0
0.125 0.5 0.0
0.1875 0.4375 0.0
0.1875 0.5625 0.0
0.1875 0.3125 0.0
0.25 0.375 0.0
0.25 0.625 0.0
0.0625 0.3125 0.0
0.0625 0.1875 0.0
0.125 0.25 0.0
0.3125 0.5625 0.0
0.3125 0.6875 0.0
0.3125 0.4375 0.0
0.375 0.5 0.0
0.4375 0.5625 0.0
0.9375 0.1875 0.0
0.9375 0.3125 0.0
0.875 0.25 0.0
0.9375 0.4375 0.0
0.8125 0.3125 0.0
0.9375 0.5625 0.0
0.875 0.5 0.0
0.8125 0.5625 0.0
0.8125 0.4375 0.0
0.8125 0.6875 0.0
0.75 0.625 0.0
0.75 0.375 0.0
0.9375 0.6875 0.0
0.9375 0.8125 0.0
0.875 0.75 0.0
0.9375 0.9375 0.0
0.8125 0.8125 0.0
0.6875 0.4375 0.0
0.6875 0.5625 0.0
0.625 0.5 0.0
0.6875 0.6875 0.0
0.5625 0.5625 0.0
0.8125 0.9375 0.0
0.6875 0.9375 0.0
0.75 0.875 0.0
0.5625 0.9375 0.0
0.6875 0.8125 0.0
0.4375 0.9375 0.0
0.5 0.875 0.0
0.4375 0.8125 0.0
0.5625 0.8125 0.0
0.3125 0.8125 0.0
0.375 0.75 0.0
0.625 0.75 0.0
0.3125 0.9375 0.0
0.1875 0.9375 0.0
0.25 0.875 0.0
0.5625 0.6875 0.0
0.4375 0.6875 0.0
0.5 0.625 0.0

CELLS 64
6 0 4 38 7 57 58
6 4 37 38 59 60 57
6 4 5 37 8 61 59
6 38 37 34 60 62 63
6 5 39 37 64 65 61
6 39 40 37 66 67 65
6 39 33 40 68 69 66
6 37 40 34 67 70 62
6 5 6 39 9 71 64
6 6 41 39 72 73 71
6 6 1 41 10 74 72
6 39 41 33 73 75 68
6 34 40 43 70 76 77
6 40 42 43 78 79 76
6 40 33 42 69 80 78
6 43 42 32 79 81 82
6 3 25 45 28 83 84
6 25 44 45 85 86 83
6 25 26 44 29 87 85
6 45 44 35 86 88 89
6 26 46 44 90 91 87
6 46 47 44 92 93 91
6 46 34 47 94 95 92
6 44 47 35 93 96 88
6 26 27 46 30 97 90
6 27 38 46 98 99 97
6 27 0 38 31 58 98
6 46 38 34 99 63 94
6 35 47 48 96 100 101
6 47 43 48 102 103 100
6 47 34 43 95 77 102
6 48 43 32 103 82 104
6 1 13 41 17 105 74
6 13 49 41 106 107 105
6 13 12 49 16 108 106
6 41 49 33 107 109 75
6 12 50 49 110 111 108
6 50 51 49 112 113 111
6 50 36 51 114 115 112
6 49 51 33 113 116 109
6 12 11 50 15 117 110
6 11 52 50 118 119 117
6 11 2 52 14 120 118
6 50 52 36 119 121 114
6 33 51 42 116 122 80
6 51 53 42 123 124 122
6 51 36 53 115 125 123
6 42 53 32 124 126 81
6 2 18 52 21 127 120
6 18 54 52 128 129 127
6 18 19 54 22 130 128
6 52 54 36 129 131 121
6 19 55 54 132 133 130
6 55 56 54 134 135 133
6 55 35 56 136 137 134
6 54 56 36 135 138 131
6 19 20 55 23 139 132
6 20 45 55 140 141 139
6 20 3 45 24 84 140
6 55 45 35 141 89 136
6 36 56 53 138 142 125
6 56 48 53 143 144 142
6 56 35 48 137 101 143
6 53 48 32 144 104 126

CELL_TYPES 64
22
22
22
22
22
22
22
22
22
22
22
22
22
22
22
22
22
22
22
22
22
22
22
22
22
22
22
22
22
22
22
22
22
22
22
22
22
22
22
22
22
22
22
22
22
22
22
22
22
22
22
22
22
22
22
22
22
22
22
22
22
22
22
22

CELL_DATA 64
SCALARS CellEntityIds int 1
LOOKUP_TABLE default
1
1
1
1
1
1
1
1
1
1
1
1
1
1
1
1
1
1
1
1
1
1
1
1
1
1
1
1
1
1
1
1
1
1
1
1
1
1
1
1
1
1
1
1
1
1
1
1
1
1
1
1
1
1
1
1
1
1
1
1
1
1
1
1
