# vtk DataFile Version 2.0
t1, Created by Gmsh 4.12.2 
ASCII
DATASET UNSTRUCTURED_GRID
POINTS 295 double
0.0 0.0 0.0
1.0 0.0 0.0
1.0 1.0 0.0
0.0 1.0 0.0
0.25 0.0 0.0
0.5 0.0 0.0
0.75 0.0 0.0
0.08333 0.0 0.0
0.16667 0.0 0.0
0.33333 0.0 0.0
0.41667 0.0 0.0
0.58333 0.0 0.0
0.66667 0.0 0.0
0.83333 0.0 0.0
0.91667 0.0 0.0
1.0 0.75 0.0
1.0 0.5 0.0
1.0 0.25 0.0
1.0 0.91667 0.0
1.0 0.83333 0.0
1.0 0.66667 0.0
1.0 0.58333 0.0
1.0 0.41667 0.0
1.0 0.33333 0.0
1.0 0.16667 0.0
1.0 0.08333 0.0
0.75 1.0 0.0
0.5 1.0 0.0
0.25 1.0 0.0
0.91667 1.0 0.0
0.83333 1.0 0.0
0.66667 1.0 0.0
0.58333 1.0 0.0
0.41667 1.0 0.0
0.33333 1.0 0.0
0.16667 1.0 0.0
0.08333 1.0 0.0
0.0 0.75 0.0
0.0 0.5 0.0
0.0 0.25 0.0
0.0 0.91667 0.0
0.0 0.83333 0.0
0.0 0.66667 0.0
0.0 0.58333 0.0
0.0 0.41667 0.0
0.0 0.33333 0.0
0.0 0.16667 0.0
0.0 0.08333 0.0
0.50181 0.49905 0.0
0.30328 0.30303 0.0
0.22005 0.77995 0.0
0.69664 0.6964 0.0
0.39352 0.14352 0.0
0.19301 0.19301 0.0
0.625 0.125 0.0
0.49738 0.26995 0.0
0.77995 0.22005 0.0
0.62848 0.37302 0.0
0.42636 0.42521 0.0
0.125 0.625 0.0
0.13657 0.38633 0.0
0.27402 0.496 0.0
0.37509 0.62653 0.0
0.875 0.375 0.0
0.8552 0.6052 0.0
0.73065 0.50262 0.0
0.80656 0.80656 0.0
0.57548 0.57426 0.0
0.61376 0.86354 0.0
0.375 0.875 0.0
0.50404 0.72659 0.0
0.21201 0.12867 0.0
0.231 0.06434 0.0
0.46451 0.04784 0.0
0.42902 0.09568 0.0
0.32669 0.16002 0.0
0.25985 0.17652 0.0
0.28434 0.11768 0.0
0.30884 0.05884 0.0
0.38667 0.05334 0.0
0.35668 0.10668 0.0
0.58246 0.17332 0.0
0.53992 0.22163 0.0
0.43268 0.28098 0.0
0.36798 0.292 0.0
0.33336 0.24986 0.0
0.36344 0.19669 0.0
0.47068 0.13735 0.0
0.54784 0.13117 0.0
0.50945 0.18111 0.0
0.47107 0.23104 0.0
0.40221 0.24045 0.0
0.43645 0.1889 0.0
0.70833 0.04167 0.0
0.66667 0.08333 0.0
0.50823 0.09157 0.0
0.54578 0.04578 0.0
0.62706 0.04372 0.0
0.58745 0.08745 0.0
0.92665 0.07335 0.0
0.8533 0.1467 0.0
0.7283 0.18837 0.0
0.67665 0.15668 0.0
0.72888 0.10446 0.0
0.78111 0.05223 0.0
0.85388 0.06279 0.0
0.79109 0.12558 0.0
0.72946 0.27104 0.0
0.67897 0.32203 0.0
0.58478 0.33866 0.0
0.54108 0.30431 0.0
0.63146 0.20589 0.0
0.68046 0.23847 0.0
0.63262 0.28856 0.0
0.58627 0.2551 0.0
0.58626 0.41503 0.0
0.54403 0.45704 0.0
0.47666 0.47443 0.0
0.45151 0.44982 0.0
0.45003 0.37346 0.0
0.47371 0.3217 0.0
0.51122 0.35281 0.0
0.54874 0.38392 0.0
0.5127 0.42918 0.0
0.48136 0.40132 0.0
0.04167 0.70833 0.0
0.08333 0.66667 0.0
0.15668 0.67665 0.0
0.18837 0.7283 0.0
0.1467 0.8533 0.0
0.07335 0.92665 0.0
0.06279 0.85388 0.0
0.05223 0.78111 0.0
0.10446 0.72888 0.0
0.12558 0.79109 0.0
0.04552 0.46211 0.0
0.09105 0.42422 0.0
0.13271 0.46588 0.0
0.12886 0.54544 0.0
0.04295 0.62626 0.0
0.04424 0.54418 0.0
0.08848 0.50503 0.0
0.0859 0.58585 0.0
0.19214 0.35856 0.0
0.24771 0.3308 0.0
0.29353 0.36735 0.0
0.28377 0.43167 0.0
0.22435 0.539 0.0
0.17467 0.582 0.0
0.1805 0.50752 0.0
0.18632 0.43304 0.0
0.23992 0.4002 0.0
0.23214 0.4696 0.0
0.06434 0.231 0.0
0.12867 0.21201 0.0
0.1742 0.25745 0.0
0.15539 0.32189 0.0
0.0518 0.38507 0.0
0.05807 0.30804 0.0
0.11613 0.28274 0.0
0.10359 0.35348 0.0
0.154 0.07067 0.0
0.14134 0.14134 0.0
0.07067 0.154 0.0
0.077 0.077 0.0
0.30036 0.21695 0.0
0.27404 0.27387 0.0
0.21471 0.29788 0.0
0.23728 0.2372 0.0
0.30771 0.53951 0.0
0.3414 0.58302 0.0
0.32341 0.67767 0.0
0.27173 0.72881 0.0
0.20703 0.63093 0.0
0.25737 0.58522 0.0
0.29039 0.63144 0.0
0.23938 0.67987 0.0
0.37558 0.44881 0.0
0.3248 0.4724 0.0
0.41365 0.33692 0.0
0.39461 0.39286 0.0
0.33919 0.41227 0.0
0.35359 0.35214 0.0
0.45957 0.54154 0.0
0.41733 0.58403 0.0
0.35564 0.50961 0.0
0.40357 0.47972 0.0
0.43157 0.51063 0.0
0.38649 0.54682 0.0
0.95833 0.29167 0.0
0.91667 0.33333 0.0
0.84332 0.32335 0.0
0.81163 0.2717 0.0
0.93721 0.14612 0.0
0.94777 0.21889 0.0
0.89554 0.27112 0.0
0.87442 0.20891 0.0
0.95173 0.53507 0.0
0.90347 0.57014 0.0
0.8618 0.52847 0.0
0.8684 0.45173 0.0
0.95613 0.3728 0.0
0.95393 0.45393 0.0
0.90787 0.4912 0.0
0.91227 0.41227 0.0
0.80235 0.6356 0.0
0.7495 0.666 0.0
0.70798 0.63181 0.0
0.71931 0.56722 0.0
0.77876 0.46008 0.0
0.82688 0.41754 0.0
0.8187 0.49023 0.0
0.81053 0.56292 0.0
0.75925 0.59736 0.0
0.76901 0.52872 0.0
0.93552 0.76885 0.0
0.87104 0.7877 0.0
0.82277 0.73944 0.0
0.83899 0.67232 0.0
0.94633 0.613 0.0
0.94092 0.69092 0.0
0.88185 0.71518 0.0
0.89266 0.64266 0.0
0.69659 0.45942 0.0
0.66254 0.41622 0.0
0.79441 0.36871 0.0
0.7455 0.41406 0.0
0.71224 0.36805 0.0
0.76193 0.31987 0.0
0.67892 0.5265 0.0
0.6272 0.55038 0.0
0.55092 0.54919 0.0
0.52637 0.52412 0.0
0.64804 0.48934 0.0
0.59948 0.51927 0.0
0.57176 0.48815 0.0
0.61715 0.45219 0.0
0.76885 0.93552 0.0
0.7877 0.87104 0.0
0.92923 0.8459 0.0
0.92295 0.92295 0.0
0.8459 0.92923 0.0
0.85847 0.85847 0.0
0.53792 0.95451 0.0
0.57584 0.90902 0.0
0.67803 0.84454 0.0
0.74229 0.82555 0.0
0.71708 0.8837 0.0
0.69188 0.94185 0.0
0.6149 0.94818 0.0
0.64646 0.89636 0.0
0.64139 0.80782 0.0
0.66902 0.75211 0.0
0.78233 0.69892 0.0
0.76231 0.76223 0.0
0.70185 0.78503 0.0
0.72567 0.72552 0.0
0.41801 0.82553 0.0
0.46102 0.77606 0.0
0.56824 0.71652 0.0
0.63244 0.70646 0.0
0.53418 0.86736 0.0
0.45459 0.87118 0.0
0.49247 0.81963 0.0
0.53035 0.76808 0.0
0.59969 0.76009 0.0
0.56693 0.81373 0.0
0.29167 0.95833 0.0
0.33333 0.91667 0.0
0.49501 0.91157 0.0
0.45584 0.95579 0.0
0.37375 0.95706 0.0
0.41417 0.91412 0.0
0.2717 0.81163 0.0
0.32335 0.84332 0.0
0.27112 0.89554 0.0
0.21889 0.94777 0.0
0.14612 0.93721 0.0
0.20891 0.87442 0.0
0.52785 0.67581 0.0
0.55167 0.62504 0.0
0.66343 0.58649 0.0
0.64793 0.64648 0.0
0.58789 0.66114 0.0
0.60755 0.60576 0.0
0.41807 0.65988 0.0
0.46105 0.69323 0.0
0.36925 0.79329 0.0
0.32049 0.76105 0.0
0.36928 0.71046 0.0
0.41515 0.74326 0.0
0.49101 0.64522 0.0
0.45417 0.61463 0.0
0.49027 0.56937 0.0
0.52097 0.5972 0.0

CELLS 30
16 53 4 5 52 71 72 9 10 73 74 75 76 77 78 79 80
16 54 55 49 52 81 82 83 84 85 86 87 88 89 90 91 92
16 52 5 6 54 74 73 11 12 93 94 88 87 95 96 97 98
16 54 6 1 56 94 93 13 14 99 100 101 102 103 104 105 106
16 54 56 57 55 102 101 107 108 109 110 82 81 111 112 113 114
16 55 57 48 58 110 109 115 116 117 118 119 120 121 122 123 124
16 3 37 59 50 40 41 125 126 127 128 129 130 131 132 133 134
16 37 38 60 59 42 43 135 136 137 138 126 125 139 140 141 142
16 59 60 49 61 138 137 143 144 145 146 147 148 149 150 151 152
16 38 39 53 60 44 45 153 154 155 156 136 135 157 158 159 160
16 4 53 39 0 72 71 154 153 46 47 7 8 161 162 163 164
16 52 49 60 53 86 85 144 143 156 155 76 75 165 166 167 168
16 59 61 62 50 148 147 169 170 171 172 128 127 173 174 175 176
16 55 58 61 49 120 119 177 178 146 145 84 83 179 180 181 182
16 61 58 48 62 178 177 118 117 183 184 170 169 185 186 187 188
16 1 17 63 56 25 24 189 190 191 192 100 99 193 194 195 196
16 17 16 64 63 23 22 197 198 199 200 190 189 201 202 203 204
16 63 64 51 65 200 199 205 206 207 208 209 210 211 212 213 214
16 16 15 66 64 21 20 215 216 217 218 198 197 219 220 221 222
16 63 65 57 56 210 209 223 224 108 107 192 191 225 226 227 228
16 65 67 48 57 229 230 231 232 116 115 224 223 233 234 235 236
16 15 2 26 66 19 18 29 30 237 238 216 215 239 240 241 242
16 66 26 27 68 238 237 31 32 243 244 245 246 247 248 249 250
16 64 66 68 51 218 217 246 245 251 252 206 205 253 254 255 256
16 69 70 51 68 257 258 259 260 252 251 261 262 263 264 265 266
16 68 27 28 69 244 243 33 34 267 268 262 261 269 270 271 272
16 69 28 3 50 268 267 35 36 130 129 273 274 275 276 277 278
16 65 51 70 67 208 207 260 259 279 280 230 229 281 282 283 284
16 69 50 62 70 274 273 172 171 285 286 258 257 287 288 289 290
16 70 62 48 67 286 285 184 183 232 231 280 279 291 292 293 294

CELL_TYPES 30
9
9
9
9
9
9
9
9
9
9
9
9
9
9
9
9
9
9
9
9
9
9
9
9
9
9
9
9
9
9

CELL_DATA 30
SCALARS CellEntityIds int 1
LOOKUP_TABLE default
1
1
1
1
1
1
1
1
1
1
1
1
1
1
1
1
1
1
1
1
1
1
1
1
1
1
1
1
1
1
