# vtk DataFile Version 2.0
t1, Created by Gmsh 4.12.2 
ASCII
DATASET UNSTRUCTURED_GRID
POINTS 67 double
0 0 0
1 0 0
1 1 0
0 1 0
0.499999999998694 0 0
0.1666666666663331 0 0
0.3333333333325136 0 0
0.666666666665796 0 0
0.8333333333328979 0 0
1 0.5000000000020591 0
1 0.8333333333339644 0
1 0.6666666666680346 0
1 0.3333333333347061 0
1 0.166666666667353 0
0.5000000000020591 1 0
0.8333333333339644 1 0
0.6666666666680346 1 0
0.3333333333347061 1 0
0.166666666667353 1 0
0 0.5000000000020591 0
0 0.8333333333339644 0
0 0.6666666666680346 0
0 0.3333333333347061 0
0 0.166666666667353 0
0.5000407391734344 0.5008681601800632 0
0.3535353995009651 0.353837357072897 0
0.6455331172539379 0.649428612098448 0
0.451178466499451 0.1179457856909657 0
0.4023569330002081 0.2358915713819313 0
0.2356902663339768 0.4025582380492844 0
0.1178451331669884 0.4512791190256717 0
0.1341189776667699 0.3008527460171145 0
0.1503928221665515 0.1504263730085572 0
0.3007856443330013 0.1341860793497615 0
0.268237955333489 0.2683721586995229 0
0.5485110390860187 0.8831428706994827 0
0.5970220781699783 0.7662857413989654 0
0.7636887448359586 0.599619074732985 0
0.8818443724179793 0.5498095373675221 0
0.6990073593906758 0.8665396915776433 0
0.7313480521133171 0.7330793831553217 0
0.865674026056641 0.6998730249116782 0
0.8495036796953026 0.8499365124558038 0
0.1666802463911448 0.833622720060021 0
0.3333604927822896 0.6672454401200422 0
0.5485381985336022 0.5503883108195248 0
0.5970356578937701 0.5999084614589865 0
0.293957177289436 0.8501294369398417 0
0.4212476879115191 0.7002588738796831 0
0.5091348830407487 0.7332723076393244 0
0.4212341081877273 0.8666361538196622 0
0.8333469130578115 0.1669560533933544 0
0.666693826115623 0.3339121067867088 0
0.451205625949278 0.4518578924776744 0
0.4023705127251216 0.4028476247752857 0
0.7059574308716914 0.1506192974925582 0
0.5785815284104847 0.3012385949851163 0
0.4904692307053464 0.2685650831835238 0
0.5785679486855712 0.1342825415917619 0
0.150401875316426 0.7061748530485346 0
0.1341235042417072 0.5787269860371183 0
0.2682470084834144 0.490787305406202 0
0.3008037506328519 0.5790163727631046 0
0.8495127328445342 0.2945738813847436 0
0.8656785526312568 0.4221917093761329 0
0.7313571052625134 0.5110500854175597 0
0.6990254656890682 0.4224810961021342 0

CELLS 6 102
16 19 0 4 25 22 23 5 6 27 28 29 30 31 32 33 34
16 14 26 9 2 35 36 37 38 11 10 15 16 39 40 41 42
16 3 24 26 14 43 44 45 46 36 35 17 18 47 48 49 50
16 1 24 25 4 51 52 53 54 28 27 7 8 55 56 57 58
16 3 19 25 24 20 21 30 29 54 53 44 43 59 60 61 62
16 1 9 26 24 13 12 38 37 46 45 52 51 63 64 65 66

CELL_TYPES 6
9
9
9
9
9
9

CELL_DATA 6
SCALARS CellEntityIds int 1
LOOKUP_TABLE default
1
1
1
1
1
1
