# vtk DataFile Version 2.0
t1, Created by Gmsh 4.12.2 
ASCII
DATASET UNSTRUCTURED_GRID
POINTS 313 double
0.0 0.0 0.0
1.0 0.0 0.0
1.0 1.0 0.0
0.0 1.0 0.0
0.25 0.0 0.0
0.5 0.0 0.0
0.75 0.0 0.0
0.08333 0.0 0.0
0.16667 0.0 0.0
0.33333 0.0 0.0
0.41667 0.0 0.0
0.58333 0.0 0.0
0.66667 0.0 0.0
0.83333 0.0 0.0
0.91667 0.0 0.0
1.0 0.75 0.0
1.0 0.5 0.0
1.0 0.25 0.0
1.0 0.91667 0.0
1.0 0.83333 0.0
1.0 0.66667 0.0
1.0 0.58333 0.0
1.0 0.41667 0.0
1.0 0.33333 0.0
1.0 0.16667 0.0
1.0 0.08333 0.0
0.75 1.0 0.0
0.5 1.0 0.0
0.25 1.0 0.0
0.91667 1.0 0.0
0.83333 1.0 0.0
0.66667 1.0 0.0
0.58333 1.0 0.0
0.41667 1.0 0.0
0.33333 1.0 0.0
0.16667 1.0 0.0
0.08333 1.0 0.0
0.0 0.75 0.0
0.0 0.5 0.0
0.0 0.25 0.0
0.0 0.91667 0.0
0.0 0.83333 0.0
0.0 0.66667 0.0
0.0 0.58333 0.0
0.0 0.41667 0.0
0.0 0.33333 0.0
0.0 0.16667 0.0
0.0 0.08333 0.0
0.5 0.5 0.0
0.75 0.25 0.0
0.25 0.25 0.0
0.25 0.75 0.0
0.75 0.75 0.0
0.375 0.125 0.0
0.125 0.125 0.0
0.625 0.125 0.0
0.5 0.25 0.0
0.875 0.125 0.0
0.625 0.375 0.0
0.375 0.375 0.0
0.125 0.625 0.0
0.125 0.875 0.0
0.125 0.375 0.0
0.25 0.5 0.0
0.375 0.625 0.0
0.875 0.375 0.0
0.875 0.625 0.0
0.75 0.5 0.0
0.875 0.875 0.0
0.625 0.625 0.0
0.625 0.875 0.0
0.375 0.875 0.0
0.5 0.75 0.0
0.20833 0.04167 0.0
0.16667 0.08333 0.0
0.08333 0.08333 0.0
0.04167 0.04167 0.0
0.125 0.04167 0.0
0.29167 0.04167 0.0
0.33333 0.08333 0.0
0.29167 0.125 0.0
0.20833 0.125 0.0
0.25 0.08333 0.0
0.45833 0.04167 0.0
0.41667 0.08333 0.0
0.375 0.04167 0.0
0.33333 0.16667 0.0
0.29167 0.20833 0.0
0.20833 0.20833 0.0
0.16667 0.16667 0.0
0.25 0.16667 0.0
0.54167 0.04167 0.0
0.58333 0.08333 0.0
0.54167 0.125 0.0
0.45833 0.125 0.0
0.5 0.08333 0.0
0.58333 0.16667 0.0
0.54167 0.20833 0.0
0.45833 0.20833 0.0
0.41667 0.16667 0.0
0.5 0.16667 0.0
0.66667 0.16667 0.0
0.70833 0.20833 0.0
0.66667 0.25 0.0
0.58333 0.25 0.0
0.625 0.20833 0.0
0.41667 0.25 0.0
0.33333 0.25 0.0
0.375 0.20833 0.0
0.70833 0.04167 0.0
0.66667 0.08333 0.0
0.625 0.04167 0.0
0.79167 0.04167 0.0
0.83333 0.08333 0.0
0.79167 0.125 0.0
0.70833 0.125 0.0
0.75 0.08333 0.0
0.95833 0.04167 0.0
0.91667 0.08333 0.0
0.875 0.04167 0.0
0.83333 0.16667 0.0
0.79167 0.20833 0.0
0.75 0.16667 0.0
0.45833 0.29167 0.0
0.41667 0.33333 0.0
0.33333 0.33333 0.0
0.29167 0.29167 0.0
0.375 0.29167 0.0
0.54167 0.29167 0.0
0.58333 0.33333 0.0
0.54167 0.375 0.0
0.45833 0.375 0.0
0.5 0.33333 0.0
0.70833 0.29167 0.0
0.66667 0.33333 0.0
0.625 0.29167 0.0
0.58333 0.41667 0.0
0.54167 0.45833 0.0
0.45833 0.45833 0.0
0.41667 0.41667 0.0
0.5 0.41667 0.0
0.04167 0.79167 0.0
0.08333 0.83333 0.0
0.08333 0.91667 0.0
0.04167 0.95833 0.0
0.04167 0.875 0.0
0.04167 0.70833 0.0
0.08333 0.66667 0.0
0.125 0.70833 0.0
0.125 0.79167 0.0
0.08333 0.75 0.0
0.04167 0.54167 0.0
0.08333 0.58333 0.0
0.04167 0.625 0.0
0.16667 0.66667 0.0
0.20833 0.70833 0.0
0.20833 0.79167 0.0
0.16667 0.83333 0.0
0.16667 0.75 0.0
0.04167 0.45833 0.0
0.08333 0.41667 0.0
0.125 0.45833 0.0
0.125 0.54167 0.0
0.08333 0.5 0.0
0.16667 0.41667 0.0
0.20833 0.45833 0.0
0.20833 0.54167 0.0
0.16667 0.58333 0.0
0.16667 0.5 0.0
0.16667 0.33333 0.0
0.20833 0.29167 0.0
0.25 0.33333 0.0
0.25 0.41667 0.0
0.20833 0.375 0.0
0.25 0.58333 0.0
0.25 0.66667 0.0
0.20833 0.625 0.0
0.04167 0.29167 0.0
0.08333 0.33333 0.0
0.04167 0.375 0.0
0.04167 0.20833 0.0
0.08333 0.16667 0.0
0.125 0.20833 0.0
0.125 0.29167 0.0
0.08333 0.25 0.0
0.04167 0.125 0.0
0.16667 0.25 0.0
0.29167 0.54167 0.0
0.33333 0.58333 0.0
0.33333 0.66667 0.0
0.29167 0.70833 0.0
0.29167 0.625 0.0
0.29167 0.45833 0.0
0.33333 0.41667 0.0
0.375 0.45833 0.0
0.375 0.54167 0.0
0.33333 0.5 0.0
0.29167 0.375 0.0
0.45833 0.54167 0.0
0.41667 0.58333 0.0
0.41667 0.5 0.0
0.95833 0.20833 0.0
0.91667 0.16667 0.0
0.95833 0.125 0.0
0.95833 0.29167 0.0
0.91667 0.33333 0.0
0.875 0.29167 0.0
0.875 0.20833 0.0
0.91667 0.25 0.0
0.95833 0.45833 0.0
0.91667 0.41667 0.0
0.95833 0.375 0.0
0.83333 0.33333 0.0
0.79167 0.29167 0.0
0.83333 0.25 0.0
0.95833 0.54167 0.0
0.91667 0.58333 0.0
0.875 0.54167 0.0
0.875 0.45833 0.0
0.91667 0.5 0.0
0.83333 0.58333 0.0
0.79167 0.54167 0.0
0.79167 0.45833 0.0
0.83333 0.41667 0.0
0.83333 0.5 0.0
0.83333 0.66667 0.0
0.79167 0.70833 0.0
0.75 0.66667 0.0
0.75 0.58333 0.0
0.79167 0.625 0.0
0.75 0.41667 0.0
0.75 0.33333 0.0
0.79167 0.375 0.0
0.95833 0.70833 0.0
0.91667 0.66667 0.0
0.95833 0.625 0.0
0.95833 0.79167 0.0
0.91667 0.83333 0.0
0.875 0.79167 0.0
0.875 0.70833 0.0
0.91667 0.75 0.0
0.95833 0.95833 0.0
0.91667 0.91667 0.0
0.95833 0.875 0.0
0.83333 0.83333 0.0
0.79167 0.79167 0.0
0.83333 0.75 0.0
0.70833 0.45833 0.0
0.66667 0.41667 0.0
0.70833 0.375 0.0
0.70833 0.54167 0.0
0.66667 0.58333 0.0
0.625 0.54167 0.0
0.625 0.45833 0.0
0.66667 0.5 0.0
0.70833 0.70833 0.0
0.66667 0.66667 0.0
0.70833 0.625 0.0
0.58333 0.58333 0.0
0.54167 0.54167 0.0
0.58333 0.5 0.0
0.79167 0.95833 0.0
0.83333 0.91667 0.0
0.875 0.95833 0.0
0.70833 0.95833 0.0
0.66667 0.91667 0.0
0.70833 0.875 0.0
0.79167 0.875 0.0
0.75 0.91667 0.0
0.54167 0.95833 0.0
0.58333 0.91667 0.0
0.625 0.95833 0.0
0.66667 0.83333 0.0
0.70833 0.79167 0.0
0.75 0.83333 0.0
0.45833 0.95833 0.0
0.41667 0.91667 0.0
0.45833 0.875 0.0
0.54167 0.875 0.0
0.5 0.91667 0.0
0.41667 0.83333 0.0
0.45833 0.79167 0.0
0.54167 0.79167 0.0
0.58333 0.83333 0.0
0.5 0.83333 0.0
0.33333 0.83333 0.0
0.29167 0.79167 0.0
0.33333 0.75 0.0
0.41667 0.75 0.0
0.375 0.79167 0.0
0.58333 0.75 0.0
0.66667 0.75 0.0
0.625 0.79167 0.0
0.29167 0.95833 0.0
0.33333 0.91667 0.0
0.375 0.95833 0.0
0.20833 0.95833 0.0
0.16667 0.91667 0.0
0.20833 0.875 0.0
0.29167 0.875 0.0
0.25 0.91667 0.0
0.125 0.95833 0.0
0.25 0.83333 0.0
0.54167 0.70833 0.0
0.58333 0.66667 0.0
0.625 0.70833 0.0
0.45833 0.70833 0.0
0.41667 0.66667 0.0
0.45833 0.625 0.0
0.54167 0.625 0.0
0.5 0.66667 0.0
0.375 0.70833 0.0
0.5 0.58333 0.0

CELLS 64
10 0 4 54 7 8 73 74 75 76 77
10 4 53 54 78 79 80 81 74 73 82
10 4 5 53 9 10 83 84 79 78 85
10 54 53 50 81 80 86 87 88 89 90
10 5 55 53 91 92 93 94 84 83 95
10 55 56 53 96 97 98 99 94 93 100
10 55 49 56 101 102 103 104 97 96 105
10 53 56 50 99 98 106 107 87 86 108
10 5 6 55 11 12 109 110 92 91 111
10 6 57 55 112 113 114 115 110 109 116
10 6 1 57 13 14 117 118 113 112 119
10 55 57 49 115 114 120 121 102 101 122
10 50 56 59 107 106 123 124 125 126 127
10 56 58 59 128 129 130 131 124 123 132
10 56 49 58 104 103 133 134 129 128 135
10 59 58 48 131 130 136 137 138 139 140
10 3 37 61 40 41 141 142 143 144 145
10 37 60 61 146 147 148 149 142 141 150
10 37 38 60 42 43 151 152 147 146 153
10 61 60 51 149 148 154 155 156 157 158
10 38 62 60 159 160 161 162 152 151 163
10 62 63 60 164 165 166 167 162 161 168
10 62 50 63 169 170 171 172 165 164 173
10 60 63 51 167 166 174 175 155 154 176
10 38 39 62 44 45 177 178 160 159 179
10 39 54 62 180 181 182 183 178 177 184
10 39 0 54 46 47 76 75 181 180 185
10 62 54 50 183 182 89 88 170 169 186
10 51 63 64 175 174 187 188 189 190 191
10 63 59 64 192 193 194 195 188 187 196
10 63 50 59 172 171 126 125 193 192 197
10 64 59 48 195 194 139 138 198 199 200
10 1 17 57 25 24 201 202 118 117 203
10 17 65 57 204 205 206 207 202 201 208
10 17 16 65 23 22 209 210 205 204 211
10 57 65 49 207 206 212 213 121 120 214
10 16 66 65 215 216 217 218 210 209 219
10 66 67 65 220 221 222 223 218 217 224
10 66 52 67 225 226 227 228 221 220 229
10 65 67 49 223 222 230 231 213 212 232
10 16 15 66 21 20 233 234 216 215 235
10 15 68 66 236 237 238 239 234 233 240
10 15 2 68 19 18 241 242 237 236 243
10 66 68 52 239 238 244 245 226 225 246
10 49 67 58 231 230 247 248 134 133 249
10 67 69 58 250 251 252 253 248 247 254
10 67 52 69 228 227 255 256 251 250 257
10 58 69 48 253 252 258 259 137 136 260
10 2 26 68 29 30 261 262 242 241 263
10 26 70 68 264 265 266 267 262 261 268
10 26 27 70 31 32 269 270 265 264 271
10 68 70 52 267 266 272 273 245 244 274
10 27 71 70 275 276 277 278 270 269 279
10 71 72 70 280 281 282 283 278 277 284
10 71 51 72 285 286 287 288 281 280 289
10 70 72 52 283 282 290 291 273 272 292
10 27 28 71 33 34 293 294 276 275 295
10 28 61 71 296 297 298 299 294 293 300
10 28 3 61 35 36 144 143 297 296 301
10 71 61 51 299 298 157 156 286 285 302
10 52 72 69 291 290 303 304 256 255 305
10 72 64 69 306 307 308 309 304 303 310
10 72 51 64 288 287 190 189 307 306 311
10 69 64 48 309 308 199 198 259 258 312

CELL_TYPES 64
5
5
5
5
5
5
5
5
5
5
5
5
5
5
5
5
5
5
5
5
5
5
5
5
5
5
5
5
5
5
5
5
5
5
5
5
5
5
5
5
5
5
5
5
5
5
5
5
5
5
5
5
5
5
5
5
5
5
5
5
5
5
5
5

CELL_DATA 64
SCALARS CellEntityIds int 1
LOOKUP_TABLE default
1
1
1
1
1
1
1
1
1
1
1
1
1
1
1
1
1
1
1
1
1
1
1
1
1
1
1
1
1
1
1
1
1
1
1
1
1
1
1
1
1
1
1
1
1
1
1
1
1
1
1
1
1
1
1
1
1
1
1
1
1
1
1
1
