# vtk DataFile Version 2.0
t1, Created by Gmsh 4.12.2 
ASCII
DATASET UNSTRUCTURED_GRID
POINTS 25 double
0.0 0.0 0.0
1.0 0.0 0.0
1.0 1.0 0.0
0.0 1.0 0.0
0.33333 0.0 0.0
0.66667 0.0 0.0
1.0 0.66667 0.0
1.0 0.33333 0.0
0.66667 1.0 0.0
0.33333 1.0 0.0
0.0 0.66667 0.0
0.0 0.33333 0.0
0.5 0.5 0.0
0.83333 0.16667 0.0
0.66667 0.33333 0.0
0.33333 0.33333 0.0
0.16667 0.16667 0.0
0.5 0.16667 0.0
0.33333 0.66667 0.0
0.16667 0.83333 0.0
0.16667 0.5 0.0
0.83333 0.83333 0.0
0.66667 0.66667 0.0
0.83333 0.5 0.0
0.5 0.83333 0.0

CELLS 4
10 0 1 12 4 5 13 14 15 16 17
10 3 0 12 10 11 16 15 18 19 20
10 1 2 12 7 6 21 22 14 13 23
10 2 3 12 8 9 19 18 22 21 24

CELL_TYPES 4
5
5
5
5

CELL_DATA 4
SCALARS CellEntityIds int 1
LOOKUP_TABLE default
1
1
1
1
