# vtk DataFile Version 2.0
t1, Created by Gmsh 4.12.2 
ASCII
DATASET UNSTRUCTURED_GRID
POINTS 513 double
0.0 0.0 0.0
1.0 0.0 0.0
1.0 1.0 0.0
0.0 1.0 0.0
0.25 0.0 0.0
0.5 0.0 0.0
0.75 0.0 0.0
0.0625 0.0 0.0
0.125 0.0 0.0
0.1875 0.0 0.0
0.3125 0.0 0.0
0.375 0.0 0.0
0.4375 0.0 0.0
0.5625 0.0 0.0
0.625 0.0 0.0
0.6875 0.0 0.0
0.8125 0.0 0.0
0.875 0.0 0.0
0.9375 0.0 0.0
1.0 0.75 0.0
1.0 0.5 0.0
1.0 0.25 0.0
1.0 0.9375 0.0
1.0 0.875 0.0
1.0 0.8125 0.0
1.0 0.6875 0.0
1.0 0.625 0.0
1.0 0.5625 0.0
1.0 0.4375 0.0
1.0 0.375 0.0
1.0 0.3125 0.0
1.0 0.1875 0.0
1.0 0.125 0.0
1.0 0.0625 0.0
0.75 1.0 0.0
0.5 1.0 0.0
0.25 1.0 0.0
0.9375 1.0 0.0
0.875 1.0 0.0
0.8125 1.0 0.0
0.6875 1.0 0.0
0.625 1.0 0.0
0.5625 1.0 0.0
0.4375 1.0 0.0
0.375 1.0 0.0
0.3125 1.0 0.0
0.1875 1.0 0.0
0.125 1.0 0.0
0.0625 1.0 0.0
0.0 0.75 0.0
0.0 0.5 0.0
0.0 0.25 0.0
0.0 0.9375 0.0
0.0 0.875 0.0
0.0 0.8125 0.0
0.0 0.6875 0.0
0.0 0.625 0.0
0.0 0.5625 0.0
0.0 0.4375 0.0
0.0 0.375 0.0
0.0 0.3125 0.0
0.0 0.1875 0.0
0.0 0.125 0.0
0.0 0.0625 0.0
0.50181 0.49905 0.0
0.30328 0.30303 0.0
0.22005 0.77995 0.0
0.69664 0.6964 0.0
0.39352 0.14352 0.0
0.19301 0.19301 0.0
0.625 0.125 0.0
0.49738 0.26995 0.0
0.77995 0.22005 0.0
0.62848 0.37302 0.0
0.42636 0.42521 0.0
0.125 0.625 0.0
0.13657 0.38633 0.0
0.27402 0.496 0.0
0.37509 0.62653 0.0
0.875 0.375 0.0
0.8552 0.6052 0.0
0.73065 0.50262 0.0
0.80656 0.80656 0.0
0.57548 0.57426 0.0
0.61376 0.86354 0.0
0.375 0.875 0.0
0.50404 0.72659 0.0
0.20726 0.14476 0.0
0.22151 0.09651 0.0
0.23575 0.04825 0.0
0.47338 0.03588 0.0
0.44676 0.07176 0.0
0.42014 0.10764 0.0
0.34339 0.1559 0.0
0.29327 0.16827 0.0
0.24314 0.18064 0.0
0.26048 0.13548 0.0
0.29516 0.04516 0.0
0.41397 0.03897 0.0
0.36692 0.11692 0.0
0.27782 0.09032 0.0
0.35457 0.04207 0.0
0.39045 0.07795 0.0
0.3137 0.1262 0.0
0.33413 0.08413 0.0
0.5931 0.16124 0.0
0.56119 0.19748 0.0
0.52929 0.23371 0.0
0.44886 0.27822 0.0
0.40033 0.28649 0.0
0.35181 0.29476 0.0
0.32584 0.26316 0.0
0.3484 0.22328 0.0
0.37096 0.1834 0.0
0.45139 0.13889 0.0
0.50926 0.13426 0.0
0.56713 0.12963 0.0
0.53756 0.16678 0.0
0.47842 0.24107 0.0
0.3767 0.25579 0.0
0.4265 0.17786 0.0
0.50799 0.20393 0.0
0.42756 0.24843 0.0
0.4016 0.21683 0.0
0.48203 0.17232 0.0
0.4548 0.21038 0.0
0.71875 0.03125 0.0
0.6875 0.0625 0.0
0.65625 0.09375 0.0
0.47917 0.10417 0.0
0.53472 0.03472 0.0
0.65741 0.03241 0.0
0.59722 0.09722 0.0
0.50695 0.06945 0.0
0.59607 0.03357 0.0
0.62732 0.06482 0.0
0.5382 0.1007 0.0
0.56713 0.06713 0.0
0.94499 0.05501 0.0
0.88997 0.11003 0.0
0.83496 0.16504 0.0
0.74121 0.19629 0.0
0.70247 0.17253 0.0
0.66374 0.14876 0.0
0.70093 0.11157 0.0
0.77531 0.03719 0.0
0.88843 0.04907 0.0
0.79028 0.14722 0.0
0.73812 0.07438 0.0
0.83187 0.04313 0.0
0.83936 0.09814 0.0
0.74561 0.12939 0.0
0.78874 0.08626 0.0
0.74208 0.25829 0.0
0.70422 0.29653 0.0
0.66635 0.33478 0.0
0.59571 0.34725 0.0
0.56293 0.32148 0.0
0.53016 0.29572 0.0
0.63034 0.1855 0.0
0.70484 0.23403 0.0
0.63208 0.30951 0.0
0.56355 0.25898 0.0
0.66759 0.20977 0.0
0.66846 0.27177 0.0
0.59782 0.28424 0.0
0.59695 0.22224 0.0
0.6327 0.247 0.0
0.59682 0.40452 0.0
0.56515 0.43603 0.0
0.53348 0.46754 0.0
0.48295 0.48059 0.0
0.46408 0.46213 0.0
0.44522 0.44367 0.0
0.44411 0.38639 0.0
0.46187 0.34758 0.0
0.47962 0.30877 0.0
0.50892 0.3327 0.0
0.56752 0.38058 0.0
0.51114 0.44725 0.0
0.46645 0.40668 0.0
0.53822 0.35664 0.0
0.53933 0.41392 0.0
0.48879 0.42697 0.0
0.48769 0.36969 0.0
0.51351 0.39181 0.0
0.03125 0.71875 0.0
0.0625 0.6875 0.0
0.09375 0.65625 0.0
0.14876 0.66374 0.0
0.17253 0.70247 0.0
0.19629 0.74121 0.0
0.16504 0.83496 0.0
0.11003 0.88997 0.0
0.05501 0.94499 0.0
0.04907 0.88843 0.0
0.03719 0.77531 0.0
0.11157 0.70093 0.0
0.14722 0.79028 0.0
0.04313 0.83187 0.0
0.07438 0.73812 0.0
0.12939 0.74561 0.0
0.09814 0.83936 0.0
0.08626 0.78874 0.0
0.03414 0.47158 0.0
0.06829 0.44316 0.0
0.10243 0.41474 0.0
0.13368 0.44599 0.0
0.13079 0.50566 0.0
0.12789 0.56533 0.0
0.03197 0.65696 0.0
0.03342 0.53337 0.0
0.10026 0.47512 0.0
0.09592 0.59587 0.0
0.0327 0.59517 0.0
0.06684 0.50425 0.0
0.09809 0.5355 0.0
0.06395 0.62642 0.0
0.06539 0.56533 0.0
0.17825 0.3655 0.0
0.21993 0.34468 0.0
0.2616 0.32386 0.0
0.29597 0.35127 0.0
0.28865 0.39951 0.0
0.28134 0.44776 0.0
0.23676 0.52825 0.0
0.19951 0.5605 0.0
0.16226 0.59275 0.0
0.16625 0.53594 0.0
0.17425 0.42231 0.0
0.25539 0.37495 0.0
0.24297 0.47715 0.0
0.17025 0.47913 0.0
0.21482 0.39863 0.0
0.24918 0.42605 0.0
0.20461 0.50654 0.0
0.20972 0.45259 0.0
0.04825 0.23575 0.0
0.09651 0.22151 0.0
0.14476 0.20726 0.0
0.1789 0.24134 0.0
0.16479 0.28967 0.0
0.15068 0.338 0.0
0.03767 0.41262 0.0
0.04473 0.29471 0.0
0.13418 0.25913 0.0
0.11301 0.36287 0.0
0.0412 0.35367 0.0
0.08945 0.27692 0.0
0.12359 0.311 0.0
0.07534 0.38775 0.0
0.0824 0.33233 0.0
0.17681 0.05181 0.0
0.15544 0.15544 0.0
0.05181 0.17681 0.0
0.05894 0.05894 0.0
0.16613 0.10363 0.0
0.10363 0.16613 0.0
0.05538 0.11788 0.0
0.11788 0.05538 0.0
0.11075 0.11075 0.0
0.32295 0.19789 0.0
0.28205 0.28187 0.0
0.19447 0.31929 0.0
0.22692 0.22686 0.0
0.3025 0.23988 0.0
0.23826 0.30058 0.0
0.21069 0.27307 0.0
0.27493 0.21237 0.0
0.2566 0.25647 0.0
0.29929 0.52863 0.0
0.32456 0.56126 0.0
0.34982 0.59389 0.0
0.33633 0.66488 0.0
0.29757 0.70324 0.0
0.25881 0.74159 0.0
0.18639 0.62996 0.0
0.26166 0.56241 0.0
0.31144 0.63072 0.0
0.23467 0.70438 0.0
0.22403 0.59618 0.0
0.28655 0.59656 0.0
0.27306 0.66755 0.0
0.21053 0.66717 0.0
0.24854 0.63187 0.0
0.38827 0.44291 0.0
0.35019 0.4606 0.0
0.3121 0.4783 0.0
0.43371 0.31939 0.0
0.40342 0.40174 0.0
0.32203 0.43242 0.0
0.34188 0.34065 0.0
0.41856 0.36056 0.0
0.36272 0.41708 0.0
0.33196 0.38653 0.0
0.3878 0.33002 0.0
0.37526 0.37355 0.0
0.47013 0.53092 0.0
0.43845 0.56279 0.0
0.40677 0.59466 0.0
0.33577 0.50739 0.0
0.40874 0.46491 0.0
0.44966 0.50891 0.0
0.3831 0.56557 0.0
0.37225 0.48615 0.0
0.4292 0.48691 0.0
0.41638 0.53724 0.0
0.35944 0.53648 0.0
0.39432 0.5117 0.0
0.96875 0.28125 0.0
0.9375 0.3125 0.0
0.90625 0.34375 0.0
0.85124 0.33626 0.0
0.82747 0.29753 0.0
0.80371 0.25879 0.0
0.95093 0.11157 0.0
0.96281 0.22469 0.0
0.88843 0.29907 0.0
0.85278 0.20972 0.0
0.95687 0.16813 0.0
0.92562 0.26188 0.0
0.87061 0.25439 0.0
0.90186 0.16064 0.0
0.91374 0.21126 0.0
0.9638 0.5263 0.0
0.9276 0.5526 0.0
0.8914 0.5789 0.0
0.86015 0.54765 0.0
0.8651 0.4901 0.0
0.87005 0.43255 0.0
0.96751 0.34251 0.0
0.96504 0.46504 0.0
0.89512 0.52012 0.0
0.90254 0.40254 0.0
0.96628 0.40378 0.0
0.93008 0.49258 0.0
0.89883 0.46133 0.0
0.93503 0.37253 0.0
0.93255 0.43255 0.0
0.81556 0.628 0.0
0.77592 0.6508 0.0
0.73628 0.6736 0.0
0.70514 0.64796 0.0
0.71364 0.59951 0.0
0.72214 0.55107 0.0
0.76673 0.47072 0.0
0.80282 0.43881 0.0
0.83891 0.40691 0.0
0.83307 0.46218 0.0
0.8214 0.57273 0.0
0.7439 0.62288 0.0
0.75912 0.52144 0.0
0.82724 0.51745 0.0
0.78265 0.59781 0.0
0.75151 0.57216 0.0
0.7961 0.49181 0.0
0.78937 0.54481 0.0
0.95164 0.76414 0.0
0.90328 0.77828 0.0
0.85492 0.79242 0.0
0.81872 0.75622 0.0
0.83088 0.70588 0.0
0.84304 0.65554 0.0
0.96076 0.58576 0.0
0.95468 0.70468 0.0
0.86404 0.73904 0.0
0.88228 0.63228 0.0
0.95772 0.64522 0.0
0.90936 0.72186 0.0
0.87316 0.68566 0.0
0.92152 0.60902 0.0
0.91544 0.66544 0.0
0.70511 0.47022 0.0
0.67957 0.43782 0.0
0.65402 0.40542 0.0
0.8147 0.36975 0.0
0.74164 0.43673 0.0
0.69145 0.36876 0.0
0.76629 0.29545 0.0
0.77817 0.40324 0.0
0.71654 0.40275 0.0
0.72887 0.3321 0.0
0.7905 0.3326 0.0
0.75352 0.36767 0.0
0.69185 0.52053 0.0
0.65306 0.53844 0.0
0.61427 0.55635 0.0
0.55706 0.55546 0.0
0.53864 0.53665 0.0
0.52023 0.51785 0.0
0.66809 0.49153 0.0
0.59407 0.53415 0.0
0.55368 0.48974 0.0
0.62058 0.43353 0.0
0.63108 0.51284 0.0
0.57387 0.51195 0.0
0.58713 0.46163 0.0
0.64433 0.46253 0.0
0.6091 0.48724 0.0
0.76414 0.95164 0.0
0.77828 0.90328 0.0
0.79242 0.85492 0.0
0.9481 0.8231 0.0
0.94103 0.94103 0.0
0.8231 0.9481 0.0
0.84431 0.84431 0.0
0.94457 0.88207 0.0
0.88207 0.94457 0.0
0.83371 0.89621 0.0
0.89621 0.83371 0.0
0.88914 0.88914 0.0
0.52844 0.96588 0.0
0.55688 0.93177 0.0
0.58532 0.89765 0.0
0.66196 0.84929 0.0
0.71016 0.83505 0.0
0.75836 0.8208 0.0
0.74064 0.8656 0.0
0.70521 0.9552 0.0
0.58737 0.96232 0.0
0.6371 0.88697 0.0
0.72293 0.9104 0.0
0.64629 0.95876 0.0
0.61223 0.92465 0.0
0.68887 0.87628 0.0
0.66758 0.91752 0.0
0.63448 0.82175 0.0
0.6552 0.77997 0.0
0.67592 0.73819 0.0
0.80126 0.6762 0.0
0.77266 0.7726 0.0
0.68054 0.80537 0.0
0.7177 0.71752 0.0
0.78696 0.7244 0.0
0.7266 0.78899 0.0
0.69912 0.76145 0.0
0.75948 0.69686 0.0
0.74304 0.74292 0.0
0.40726 0.8379 0.0
0.43952 0.80079 0.0
0.47178 0.76369 0.0
0.55219 0.71904 0.0
0.60034 0.71149 0.0
0.64849 0.70395 0.0
0.55407 0.8664 0.0
0.49438 0.86927 0.0
0.43469 0.87213 0.0
0.46407 0.83386 0.0
0.52281 0.75731 0.0
0.62489 0.74456 0.0
0.57768 0.82579 0.0
0.49344 0.79559 0.0
0.57385 0.75094 0.0
0.60128 0.78517 0.0
0.52087 0.82982 0.0
0.54736 0.79038 0.0
0.28125 0.96875 0.0
0.3125 0.9375 0.0
0.34375 0.90625 0.0
0.52493 0.8998 0.0
0.46664 0.9666 0.0
0.34305 0.96803 0.0
0.40414 0.9041 0.0
0.49579 0.9332 0.0
0.40485 0.96732 0.0
0.3736 0.93607 0.0
0.46454 0.90195 0.0
0.43469 0.93463 0.0
0.25879 0.80371 0.0
0.29753 0.82747 0.0
0.33626 0.85124 0.0
0.29907 0.88843 0.0
0.22469 0.96281 0.0
0.11157 0.95093 0.0
0.20972 0.85278 0.0
0.26188 0.92562 0.0
0.16813 0.95687 0.0
0.16064 0.90186 0.0
0.25439 0.87061 0.0
0.21126 0.91374 0.0
0.5219 0.6885 0.0
0.53976 0.65042 0.0
0.55762 0.61234 0.0
0.68101 0.56639 0.0
0.65933 0.65809 0.0
0.56771 0.67837 0.0
0.59875 0.59702 0.0
0.67017 0.61224 0.0
0.61352 0.66823 0.0
0.58323 0.6377 0.0
0.63988 0.5817 0.0
0.6267 0.62497 0.0
0.40733 0.65154 0.0
0.43956 0.67656 0.0
0.4718 0.70157 0.0
0.37015 0.81382 0.0
0.29592 0.76567 0.0
0.37019 0.68958 0.0
0.43792 0.73899 0.0
0.33304 0.78974 0.0
0.33306 0.72763 0.0
0.40405 0.71429 0.0
0.40403 0.7764 0.0
0.36854 0.75202 0.0
0.49312 0.66504 0.0
0.43555 0.61812 0.0
0.492 0.55127 0.0
0.53575 0.59199 0.0
0.46433 0.64158 0.0
0.46378 0.5847 0.0
0.51387 0.57163 0.0
0.51443 0.62851 0.0
0.4891 0.60661 0.0

CELLS 30
25 69 4 5 68 87 88 89 10 11 12 90 91 92 93 94 95 96 97 98 99 100 101 102 103 104
25 70 71 65 68 105 106 107 108 109 110 111 112 113 114 115 116 117 118 119 120 121 122 123 124 125
25 68 5 6 70 92 91 90 13 14 15 126 127 128 116 115 114 129 130 131 132 133 134 135 136 137
25 70 6 1 72 128 127 126 16 17 18 138 139 140 141 142 143 144 145 146 147 148 149 150 151 152
25 70 72 73 71 143 142 141 153 154 155 156 157 158 107 106 105 159 160 161 162 163 164 165 166 167
25 71 73 64 74 158 157 156 168 169 170 171 172 173 174 175 176 177 178 179 180 181 182 183 184 185
25 3 49 75 66 52 53 54 186 187 188 189 190 191 192 193 194 195 196 197 198 199 200 201 202 203
25 49 50 76 75 55 56 57 204 205 206 207 208 209 188 187 186 210 211 212 213 214 215 216 217 218
25 75 76 65 77 209 208 207 219 220 221 222 223 224 225 226 227 228 229 230 231 232 233 234 235 236
25 50 51 69 76 58 59 60 237 238 239 240 241 242 206 205 204 243 244 245 246 247 248 249 250 251
25 4 69 51 0 89 88 87 239 238 237 61 62 63 7 8 9 252 253 254 255 256 257 258 259 260
25 68 65 76 69 113 112 111 221 220 219 242 241 240 95 94 93 261 262 263 264 265 266 267 268 269
25 75 77 78 66 227 226 225 270 271 272 273 274 275 191 190 189 276 277 278 279 280 281 282 283 284
25 71 74 77 65 176 175 174 285 286 287 224 223 222 110 109 108 288 289 290 291 292 293 294 295 296
25 77 74 64 78 287 286 285 173 172 171 297 298 299 272 271 270 300 301 302 303 304 305 306 307 308
25 1 21 79 72 33 32 31 309 310 311 312 313 314 140 139 138 315 316 317 318 319 320 321 322 323
25 21 20 80 79 30 29 28 324 325 326 327 328 329 311 310 309 330 331 332 333 334 335 336 337 338
25 79 80 67 81 329 328 327 339 340 341 342 343 344 345 346 347 348 349 350 351 352 353 354 355 356
25 20 19 82 80 27 26 25 357 358 359 360 361 362 326 325 324 363 364 365 366 367 368 369 370 371
25 79 81 73 72 347 346 345 372 373 374 155 154 153 314 313 312 375 376 377 378 379 380 381 382 383
25 81 83 64 73 384 385 386 387 388 389 170 169 168 374 373 372 390 391 392 393 394 395 396 397 398
25 19 2 34 82 24 23 22 37 38 39 399 400 401 359 358 357 402 403 404 405 406 407 408 409 410
25 82 34 35 84 401 400 399 40 41 42 411 412 413 414 415 416 417 418 419 420 421 422 423 424 425
25 80 82 84 67 362 361 360 416 415 414 426 427 428 341 340 339 429 430 431 432 433 434 435 436 437
25 85 86 67 84 438 439 440 441 442 443 428 427 426 444 445 446 447 448 449 450 451 452 453 454 455
25 84 35 36 85 413 412 411 43 44 45 456 457 458 446 445 444 459 460 461 462 463 464 465 466 467
25 85 36 3 66 458 457 456 46 47 48 194 193 192 468 469 470 471 472 473 474 475 476 477 478 479
25 81 67 86 83 344 343 342 443 442 441 480 481 482 386 385 384 483 484 485 486 487 488 489 490 491
25 85 66 78 86 470 469 468 275 274 273 492 493 494 440 439 438 495 496 497 498 499 500 501 502 503
25 86 78 64 83 494 493 492 299 298 297 389 388 387 482 481 480 504 505 506 507 508 509 510 511 512

CELL_TYPES 30
9
9
9
9
9
9
9
9
9
9
9
9
9
9
9
9
9
9
9
9
9
9
9
9
9
9
9
9
9
9

CELL_DATA 30
SCALARS CellEntityIds int 1
LOOKUP_TABLE default
1
1
1
1
1
1
1
1
1
1
1
1
1
1
1
1
1
1
1
1
1
1
1
1
1
1
1
1
1
1
