# vtk DataFile Version 2.0
test, Created by Gmsh 4.12.2 
ASCII
DATASET UNSTRUCTURED_GRID
POINTS 113 double
0 0 0
1 0 0
1 1 0
0 1 0
0.499999999998694 0 0
0.124999999999778 0 0
0.2499999999994167 0 0
0.3749999999990553 0 0
0.6249999999990205 0 0
0.749999999999347 0 0
0.8749999999996735 0 0
1 0.5000000000020591 0
1 0.8750000000003566 0
1 0.7500000000008733 0
1 0.6250000000015228 0
1 0.3750000000015443 0
1 0.2500000000010296 0
1 0.1250000000005148 0
0.5000000000020591 1 0
0.8750000000003566 1 0
0.7500000000008733 1 0
0.6250000000015228 1 0
0.3750000000015443 1 0
0.2500000000010296 1 0
0.1250000000005148 1 0
0 0.5000000000020591 0
0 0.8750000000003566 0
0 0.7500000000008733 0
0 0.6250000000015228 0
0 0.3750000000015443 0
0 0.2500000000010296 0
0 0.1250000000005148 0
0.5000407391734344 0.5008681601800632 0
0.3535353995009651 0.353837357072897 0
0.6455331172539379 0.649428612098448 0
0.4633838498742618 0.08845933926822425 0
0.4267676997498295 0.1769186785364485 0
0.3901515496253973 0.2653780178046727 0
0.2651515496257238 0.3903780178051875 0
0.1767676997504826 0.4269186785374781 0
0.08838384987524128 0.4634593392697686 0
0.09753788740637546 0.3475945044523264 0
0.1158459624686438 0.1158648348174422 0
0.3475378874057224 0.09759450445129689 0
0.2926136622190567 0.2927835133538906 0
0.1066919249375096 0.2317296696348843 0
0.2316919249371832 0.1067296696343695 0
0.3200757748123896 0.1951890089025938 0
0.1950757748127161 0.3201890089031085 0
0.2133838498749496 0.2134593392687391 0
0.5363832793150288 0.912357153024612 0
0.5727665586279985 0.824714306049224 0
0.6091498379409682 0.7370714590738361 0
0.7341498379404534 0.6120714590743508 0
0.822766558626969 0.5747143060502535 0
0.9113832793134845 0.5373571530261564 0
0.6522874594862555 0.9030178647685482 0
0.7068623784557208 0.7090535943057577 0
0.9022874594852025 0.6530178647696012 0
0.8840958198286386 0.8843392882564204 0
0.6795749189709881 0.8060357295371363 0
0.804574918970445 0.6810357295376794 0
0.8931916396569206 0.7686785765129611 0
0.7681916396573973 0.8936785765124844 0
0.7863832793139212 0.7873571530250487 0
0.1250101847933586 0.8752170400450158 0
0.2500203695867172 0.7504340800900315 0
0.3750305543800758 0.6256511201350474 0
0.5364138336935602 0.5380082731596594 0
0.5727869282136862 0.5751483861392557 0
0.6091600227338121 0.6122884991188519 0
0.2278534584237762 0.8845020682899147 0
0.4335603752702989 0.6535062048697446 0
0.5506200170507451 0.7092163743391389 0
0.4335400056846113 0.9030721247797131 0
0.3307069168470375 0.7690041365798296 0
0.492090196160522 0.6813612896044418 0
0.4920800113676782 0.806144249559426 0
0.3306967320541938 0.8937870965348138 0
0.4113934641073578 0.7875741930696278 0
0.8750101847933586 0.1252170400450158 0
0.7500203695867171 0.2504340800900316 0
0.6250305543800758 0.3756511201350474 0
0.4634144042553171 0.4641104594032717 0
0.4267880693371998 0.4273527586264801 0
0.3901617344190824 0.3905950578496885 0
0.7721036010635844 0.1160276148508179 0
0.5663108031914061 0.3480828445524538 0
0.4488713008140669 0.2929462933872664 0
0.566290433604036 0.09764876446242213 0
0.6692072021274953 0.2320552297016358 0
0.5075910520027366 0.3205145689698601 0
0.5075808672090514 0.1952975289248443 0
0.6691970173338101 0.10683818965662 0
0.5883940346682733 0.21367637931324 0
0.1158536010638293 0.7722776148510853 0
0.0975404336047706 0.5663987644635642 0
0.2926213008143118 0.4491962933876471 0
0.3475608031914879 0.5668328445525428 0
0.1066970173342999 0.669338189657275 0
0.1950808672095412 0.5077975289256056 0
0.3200910520028998 0.5080145689700785 0
0.2317072021276586 0.6695552297018141 0
0.2133940346685999 0.5886763793136767 0
0.88410345842339 0.228252068290301 0
0.902290005683453 0.4343221247808713 0
0.706870017050359 0.5529663743395249 0
0.6523103752701702 0.4347562048698733 0
0.8931967320534215 0.3312870965355862 0
0.8045800113669059 0.493644249560198 0
0.6795901961602646 0.4938612896046992 0
0.7682069168467802 0.3315041365800871 0
0.7863934641068431 0.4125741930701426 0
 
CELLS 6 156
25 25 0 4 33 29 30 31 5 6 7 35 36 37 38 39 40 41 42 43 44 45 46 47 48 49
25 18 34 11 2 50 51 52 53 54 55 14 13 12 19 20 21 56 57 58 59 60 61 62 63 64
25 3 32 34 18 65 66 67 68 69 70 52 51 50 22 23 24 71 72 73 74 75 76 77 78 79
25 1 32 33 4 80 81 82 83 84 85 37 36 35 8 9 10 86 87 88 89 90 91 92 93 94
25 3 25 33 32 26 27 28 40 39 38 85 84 83 67 66 65 95 96 97 98 99 100 101 102 103
25 1 11 34 32 17 16 15 55 54 53 70 69 68 82 81 80 104 105 106 107 108 109 110 111 112

CELL_TYPES 30
9
9
9
9
9
9

CELL_DATA 30
SCALARS CellEntityIds int 1
LOOKUP_TABLE default
1
1
1
1
1
1
