# vtk DataFile Version 2.0
t1, Created by Gmsh 4.12.2 
ASCII
DATASET UNSTRUCTURED_GRID
POINTS 791 double
0.0 0.0 0.0
1.0 0.0 0.0
1.0 1.0 0.0
0.0 1.0 0.0
0.25 0.0 0.0
0.5 0.0 0.0
0.75 0.0 0.0
0.05 0.0 0.0
0.1 0.0 0.0
0.15 0.0 0.0
0.2 0.0 0.0
0.3 0.0 0.0
0.35 0.0 0.0
0.4 0.0 0.0
0.45 0.0 0.0
0.55 0.0 0.0
0.6 0.0 0.0
0.65 0.0 0.0
0.7 0.0 0.0
0.8 0.0 0.0
0.85 0.0 0.0
0.9 0.0 0.0
0.95 0.0 0.0
1.0 0.75 0.0
1.0 0.5 0.0
1.0 0.25 0.0
1.0 0.95 0.0
1.0 0.9 0.0
1.0 0.85 0.0
1.0 0.8 0.0
1.0 0.7 0.0
1.0 0.65 0.0
1.0 0.6 0.0
1.0 0.55 0.0
1.0 0.45 0.0
1.0 0.4 0.0
1.0 0.35 0.0
1.0 0.3 0.0
1.0 0.2 0.0
1.0 0.15 0.0
1.0 0.1 0.0
1.0 0.05 0.0
0.75 1.0 0.0
0.5 1.0 0.0
0.25 1.0 0.0
0.95 1.0 0.0
0.9 1.0 0.0
0.85 1.0 0.0
0.8 1.0 0.0
0.7 1.0 0.0
0.65 1.0 0.0
0.6 1.0 0.0
0.55 1.0 0.0
0.45 1.0 0.0
0.4 1.0 0.0
0.35 1.0 0.0
0.3 1.0 0.0
0.2 1.0 0.0
0.15 1.0 0.0
0.1 1.0 0.0
0.05 1.0 0.0
0.0 0.75 0.0
0.0 0.5 0.0
0.0 0.25 0.0
0.0 0.95 0.0
0.0 0.9 0.0
0.0 0.85 0.0
0.0 0.8 0.0
0.0 0.7 0.0
0.0 0.65 0.0
0.0 0.6 0.0
0.0 0.55 0.0
0.0 0.45 0.0
0.0 0.4 0.0
0.0 0.35 0.0
0.0 0.3 0.0
0.0 0.2 0.0
0.0 0.15 0.0
0.0 0.1 0.0
0.0 0.05 0.0
0.50181 0.49905 0.0
0.30328 0.30303 0.0
0.22005 0.77995 0.0
0.69664 0.6964 0.0
0.39352 0.14352 0.0
0.19301 0.19301 0.0
0.625 0.125 0.0
0.49738 0.26995 0.0
0.77995 0.22005 0.0
0.62848 0.37302 0.0
0.42636 0.42521 0.0
0.125 0.625 0.0
0.13657 0.38633 0.0
0.27402 0.496 0.0
0.37509 0.62653 0.0
0.875 0.375 0.0
0.8552 0.6052 0.0
0.73065 0.50262 0.0
0.80656 0.80656 0.0
0.57548 0.57426 0.0
0.61376 0.86354 0.0
0.375 0.875 0.0
0.50404 0.72659 0.0
0.20441 0.15441 0.0
0.21581 0.11581 0.0
0.2272 0.0772 0.0
0.2386 0.0386 0.0
0.4787 0.0287 0.0
0.45741 0.05741 0.0
0.43611 0.08611 0.0
0.41482 0.11482 0.0
0.35342 0.15342 0.0
0.31332 0.16332 0.0
0.27322 0.17322 0.0
0.23311 0.18311 0.0
0.24649 0.14649 0.0
0.28662 0.03662 0.0
0.43068 0.03068 0.0
0.37274 0.12274 0.0
0.25987 0.10987 0.0
0.27325 0.07325 0.0
0.33464 0.03464 0.0
0.38266 0.03266 0.0
0.41137 0.06137 0.0
0.39205 0.09205 0.0
0.33065 0.13065 0.0
0.28857 0.13857 0.0
0.30393 0.10393 0.0
0.31929 0.06929 0.0
0.36533 0.06533 0.0
0.34799 0.09799 0.0
0.59948 0.15399 0.0
0.57395 0.18298 0.0
0.54843 0.21197 0.0
0.5229 0.24096 0.0
0.45856 0.27657 0.0
0.41974 0.28318 0.0
0.38092 0.2898 0.0
0.3421 0.29642 0.0
0.32133 0.27113 0.0
0.33938 0.23923 0.0
0.35743 0.20733 0.0
0.37547 0.17542 0.0
0.43982 0.13982 0.0
0.48611 0.13611 0.0
0.53241 0.13241 0.0
0.5787 0.1287 0.0
0.55468 0.15828 0.0
0.48259 0.24699 0.0
0.36164 0.2651 0.0
0.42027 0.17114 0.0
0.53065 0.18785 0.0
0.50662 0.21742 0.0
0.44227 0.25303 0.0
0.40196 0.25906 0.0
0.38119 0.23378 0.0
0.40073 0.20246 0.0
0.46508 0.16685 0.0
0.50988 0.16256 0.0
0.48734 0.19272 0.0
0.46481 0.22287 0.0
0.423 0.22833 0.0
0.44404 0.19759 0.0
0.725 0.025 0.0
0.7 0.05 0.0
0.675 0.075 0.0
0.65 0.1 0.0
0.46185 0.11185 0.0
0.52796 0.02796 0.0
0.67574 0.02574 0.0
0.60296 0.10296 0.0
0.48389 0.08389 0.0
0.50593 0.05593 0.0
0.57722 0.02722 0.0
0.62648 0.02648 0.0
0.65148 0.05148 0.0
0.62722 0.07722 0.0
0.55593 0.10593 0.0
0.50889 0.10889 0.0
0.53167 0.08167 0.0
0.55445 0.05445 0.0
0.60296 0.05296 0.0
0.57945 0.07945 0.0
0.95599 0.04401 0.0
0.91198 0.08802 0.0
0.86797 0.13203 0.0
0.82396 0.17604 0.0
0.74896 0.20104 0.0
0.71797 0.18203 0.0
0.68698 0.16302 0.0
0.65599 0.14401 0.0
0.68479 0.11521 0.0
0.7712 0.0288 0.0
0.90979 0.04021 0.0
0.78917 0.16083 0.0
0.71359 0.08641 0.0
0.7424 0.0576 0.0
0.8174 0.0326 0.0
0.86359 0.03641 0.0
0.86958 0.08042 0.0
0.82937 0.12063 0.0
0.75437 0.14563 0.0
0.71958 0.13042 0.0
0.75219 0.09781 0.0
0.78479 0.06521 0.0
0.82719 0.07281 0.0
0.79078 0.10922 0.0
0.74966 0.25065 0.0
0.71936 0.28124 0.0
0.68907 0.31183 0.0
0.65878 0.34242 0.0
0.60226 0.3524 0.0
0.57604 0.33179 0.0
0.54982 0.31118 0.0
0.5236 0.29056 0.0
0.62951 0.17332 0.0
0.71962 0.23131 0.0
0.6316 0.32213 0.0
0.55008 0.26125 0.0
0.65955 0.19265 0.0
0.68958 0.21198 0.0
0.69028 0.26159 0.0
0.66094 0.29186 0.0
0.60443 0.30184 0.0
0.57725 0.28155 0.0
0.57656 0.23194 0.0
0.60303 0.20263 0.0
0.63212 0.22228 0.0
0.6612 0.24193 0.0
0.63281 0.27189 0.0
0.60468 0.25191 0.0
0.60315 0.39822 0.0
0.57781 0.42343 0.0
0.55248 0.44864 0.0
0.52714 0.47384 0.0
0.48672 0.48428 0.0
0.47163 0.46951 0.0
0.45654 0.45474 0.0
0.44145 0.43998 0.0
0.44056 0.39416 0.0
0.45477 0.36311 0.0
0.46897 0.33205 0.0
0.48318 0.301 0.0
0.50717 0.32045 0.0
0.57915 0.37878 0.0
0.50983 0.4579 0.0
0.45788 0.41009 0.0
0.53116 0.33989 0.0
0.55516 0.35933 0.0
0.55605 0.40515 0.0
0.53294 0.43153 0.0
0.49251 0.44197 0.0
0.47519 0.42603 0.0
0.47431 0.38021 0.0
0.49074 0.35033 0.0
0.51251 0.3686 0.0
0.53428 0.38688 0.0
0.51339 0.41442 0.0
0.49385 0.39732 0.0
0.025 0.725 0.0
0.05 0.7 0.0
0.075 0.675 0.0
0.1 0.65 0.0
0.14401 0.65599 0.0
0.16302 0.68698 0.0
0.18203 0.71797 0.0
0.20104 0.74896 0.0
0.17604 0.82396 0.0
0.13203 0.86797 0.0
0.08802 0.91198 0.0
0.04401 0.95599 0.0
0.04021 0.90979 0.0
0.0288 0.7712 0.0
0.11521 0.68479 0.0
0.16083 0.78917 0.0
0.03641 0.86359 0.0
0.0326 0.8174 0.0
0.0576 0.7424 0.0
0.08641 0.71359 0.0
0.13042 0.71958 0.0
0.14563 0.75437 0.0
0.12063 0.82937 0.0
0.08042 0.86958 0.0
0.07281 0.82719 0.0
0.06521 0.78479 0.0
0.09781 0.75219 0.0
0.10922 0.79078 0.0
0.02731 0.47727 0.0
0.05463 0.45453 0.0
0.08194 0.4318 0.0
0.10926 0.40906 0.0
0.13426 0.43406 0.0
0.13194 0.4818 0.0
0.12963 0.52953 0.0
0.12731 0.57727 0.0
0.02546 0.67545 0.0
0.02685 0.52681 0.0
0.10741 0.45725 0.0
0.10185 0.60181 0.0
0.02593 0.62591 0.0
0.02639 0.57636 0.0
0.0537 0.50362 0.0
0.08055 0.48044 0.0
0.10555 0.50544 0.0
0.1037 0.55362 0.0
0.07639 0.62636 0.0
0.05093 0.65091 0.0
0.05185 0.60181 0.0
0.05278 0.55272 0.0
0.07917 0.52908 0.0
0.07778 0.57772 0.0
0.16991 0.36967 0.0
0.20326 0.35301 0.0
0.2366 0.33635 0.0
0.26994 0.31969 0.0
0.29743 0.34163 0.0
0.29158 0.38022 0.0
0.28572 0.41881 0.0
0.27987 0.4574 0.0
0.24422 0.5218 0.0
0.21441 0.5476 0.0
0.18461 0.5734 0.0
0.1548 0.5992 0.0
0.15783 0.55329 0.0
0.16689 0.41557 0.0
0.2648 0.36011 0.0
0.24936 0.48138 0.0
0.16085 0.50739 0.0
0.16387 0.46148 0.0
0.19953 0.39709 0.0
0.23216 0.3786 0.0
0.25965 0.40053 0.0
0.25451 0.44095 0.0
0.21885 0.50535 0.0
0.18834 0.52932 0.0
0.19207 0.48524 0.0
0.1958 0.44116 0.0
0.22772 0.42085 0.0
0.22329 0.4631 0.0
0.0386 0.2386 0.0
0.0772 0.2272 0.0
0.11581 0.21581 0.0
0.15441 0.20441 0.0
0.18172 0.23167 0.0
0.17044 0.27034 0.0
0.15915 0.309 0.0
0.14786 0.34766 0.0
0.02957 0.42953 0.0
0.03634 0.28633 0.0
0.14538 0.24534 0.0
0.11829 0.36813 0.0
0.03183 0.3818 0.0
0.03409 0.33407 0.0
0.07269 0.27267 0.0
0.10903 0.259 0.0
0.13635 0.28627 0.0
0.12732 0.3272 0.0
0.08872 0.3886 0.0
0.05914 0.40907 0.0
0.06366 0.3636 0.0
0.06817 0.31813 0.0
0.10226 0.3022 0.0
0.09549 0.3454 0.0
0.19088 0.04088 0.0
0.16353 0.16353 0.0
0.04088 0.19088 0.0
0.04772 0.04772 0.0
0.18176 0.08176 0.0
0.17265 0.12265 0.0
0.12265 0.17265 0.0
0.08176 0.18176 0.0
0.04316 0.14316 0.0
0.04544 0.09544 0.0
0.09544 0.04544 0.0
0.14316 0.04316 0.0
0.13632 0.08632 0.0
0.12948 0.12948 0.0
0.08632 0.13632 0.0
0.09088 0.09088 0.0
0.33672 0.18667 0.0
0.28664 0.28644 0.0
0.18255 0.33236 0.0
0.22047 0.22042 0.0
0.32003 0.21993 0.0
0.30333 0.25318 0.0
0.25194 0.30174 0.0
0.21725 0.31705 0.0
0.19519 0.29505 0.0
0.20783 0.25774 0.0
0.25922 0.20917 0.0
0.29797 0.19792 0.0
0.28263 0.23253 0.0
0.26729 0.26714 0.0
0.23124 0.28109 0.0
0.24523 0.24513 0.0
0.29423 0.5221 0.0
0.31445 0.54821 0.0
0.33466 0.57431 0.0
0.35488 0.60042 0.0
0.34408 0.65721 0.0
0.31308 0.6879 0.0
0.28207 0.71858 0.0
0.25106 0.74926 0.0
0.17406 0.62921 0.0
0.26419 0.54888 0.0
0.32411 0.63013 0.0
0.23181 0.71925 0.0
0.2041 0.60243 0.0
0.23414 0.57566 0.0
0.28416 0.57596 0.0
0.30414 0.60305 0.0
0.29334 0.65984 0.0
0.26258 0.68954 0.0
0.21256 0.68924 0.0
0.19331 0.65923 0.0
0.22359 0.63147 0.0
0.25388 0.60372 0.0
0.27361 0.63178 0.0
0.24308 0.66051 0.0
0.39589 0.43937 0.0
0.36542 0.45352 0.0
0.33495 0.46768 0.0
0.30449 0.48184 0.0
0.44603 0.30913 0.0
0.40842 0.40681 0.0
0.31201 0.44475 0.0
0.33458 0.3335 0.0
0.43349 0.34169 0.0
0.42096 0.37425 0.0
0.37629 0.41946 0.0
0.34415 0.43211 0.0
0.31953 0.40767 0.0
0.32706 0.37059 0.0
0.37173 0.32538 0.0
0.40888 0.31725 0.0
0.39801 0.35132 0.0
0.38715 0.38539 0.0
0.35334 0.39653 0.0
0.36253 0.36095 0.0
0.47646 0.52454 0.0
0.45112 0.55004 0.0
0.42578 0.57554 0.0
0.40043 0.60103 0.0
0.32368 0.50568 0.0
0.412 0.4564 0.0
0.46035 0.50751 0.0
0.38125 0.57719 0.0
0.35312 0.48925 0.0
0.38256 0.47283 0.0
0.42812 0.47344 0.0
0.44423 0.49047 0.0
0.43398 0.53074 0.0
0.40761 0.55396 0.0
0.36206 0.55335 0.0
0.34287 0.52952 0.0
0.37128 0.51082 0.0
0.3997 0.49213 0.0
0.41684 0.51143 0.0
0.38945 0.53239 0.0
0.975 0.275 0.0
0.95 0.3 0.0
0.925 0.325 0.0
0.9 0.35 0.0
0.85599 0.34401 0.0
0.83698 0.31302 0.0
0.81797 0.28203 0.0
0.79896 0.25104 0.0
0.95979 0.09021 0.0
0.9712 0.2288 0.0
0.88479 0.31521 0.0
0.83917 0.21083 0.0
0.96359 0.13641 0.0
0.9674 0.1826 0.0
0.9424 0.2576 0.0
0.91359 0.28641 0.0
0.86958 0.28042 0.0
0.85437 0.24563 0.0
0.87937 0.17063 0.0
0.91958 0.13042 0.0
0.92719 0.17281 0.0
0.93479 0.21521 0.0
0.90219 0.24781 0.0
0.89078 0.20922 0.0
0.97104 0.52104 0.0
0.94208 0.54208 0.0
0.91312 0.56312 0.0
0.88416 0.58416 0.0
0.85916 0.55916 0.0
0.86312 0.51312 0.0
0.86708 0.46708 0.0
0.87104 0.42104 0.0
0.97421 0.32421 0.0
0.97183 0.47183 0.0
0.88733 0.53733 0.0
0.89683 0.39683 0.0
0.97342 0.37342 0.0
0.97262 0.42262 0.0
0.94367 0.49367 0.0
0.9155 0.5155 0.0
0.8905 0.4905 0.0
0.89367 0.44367 0.0
0.92262 0.37262 0.0
0.94842 0.34842 0.0
0.94683 0.39683 0.0
0.94525 0.44525 0.0
0.91787 0.46787 0.0
0.92025 0.42025 0.0
0.82349 0.62344 0.0
0.79178 0.64168 0.0
0.76007 0.65992 0.0
0.72835 0.67816 0.0
0.70344 0.65765 0.0
0.71024 0.61889 0.0
0.71704 0.58013 0.0
0.72385 0.54138 0.0
0.75952 0.4771 0.0
0.78839 0.45157 0.0
0.81726 0.42605 0.0
0.84613 0.40052 0.0
0.8416 0.44511 0.0
0.82802 0.57886 0.0
0.73459 0.63795 0.0
0.75328 0.51731 0.0
0.83707 0.48969 0.0
0.83255 0.53428 0.0
0.79688 0.59856 0.0
0.76573 0.61825 0.0
0.74082 0.59774 0.0
0.74705 0.55752 0.0
0.78272 0.49324 0.0
0.81216 0.46918 0.0
0.80707 0.5123 0.0
0.80197 0.55543 0.0
0.7714 0.57658 0.0
0.77706 0.53491 0.0
0.96131 0.76131 0.0
0.92262 0.77262 0.0
0.88393 0.78393 0.0
0.84525 0.79525 0.0
0.81629 0.76629 0.0
0.82602 0.72602 0.0
0.83575 0.68575 0.0
0.84547 0.64547 0.0
0.96909 0.56909 0.0
0.96326 0.71326 0.0
0.85303 0.75303 0.0
0.87638 0.62638 0.0
0.96715 0.61715 0.0
0.9652 0.6652 0.0
0.92651 0.72651 0.0
0.88977 0.73977 0.0
0.86081 0.71081 0.0
0.8686 0.6686 0.0
0.90728 0.60728 0.0
0.93819 0.58819 0.0
0.9343 0.6343 0.0
0.93041 0.68041 0.0
0.89561 0.69561 0.0
0.90145 0.65145 0.0
0.71021 0.4767 0.0
0.68978 0.45078 0.0
0.66935 0.42486 0.0
0.64892 0.39894 0.0
0.82683 0.37055 0.0
0.73937 0.45016 0.0
0.67892 0.36936 0.0
0.76895 0.28062 0.0
0.79768 0.39709 0.0
0.76852 0.42362 0.0
0.71922 0.42323 0.0
0.69907 0.39629 0.0
0.70893 0.33978 0.0
0.73894 0.3102 0.0
0.78824 0.3106 0.0
0.80754 0.34057 0.0
0.7781 0.36812 0.0
0.74866 0.39568 0.0
0.7288 0.36773 0.0
0.75852 0.33916 0.0
0.69961 0.51695 0.0
0.66858 0.53128 0.0
0.63755 0.54561 0.0
0.60651 0.55993 0.0
0.56075 0.55922 0.0
0.54601 0.54418 0.0
0.53128 0.52913 0.0
0.51654 0.51409 0.0
0.68032 0.4932 0.0
0.59064 0.54272 0.0
0.54302 0.49106 0.0
0.62244 0.42197 0.0
0.65043 0.50971 0.0
0.62053 0.52621 0.0
0.57477 0.5255 0.0
0.55889 0.50828 0.0
0.56949 0.46803 0.0
0.59597 0.445 0.0
0.64173 0.44571 0.0
0.66103 0.46946 0.0
0.63227 0.48814 0.0
0.60352 0.50682 0.0
0.58651 0.48742 0.0
0.61412 0.46657 0.0
0.76131 0.96131 0.0
0.77262 0.92262 0.0
0.78393 0.88393 0.0
0.79525 0.84525 0.0
0.95905 0.80905 0.0
0.95226 0.95226 0.0
0.80905 0.95905 0.0
0.8362 0.8362 0.0
0.95679 0.85679 0.0
0.95452 0.90452 0.0
0.90452 0.95452 0.0
0.85679 0.95679 0.0
0.8181 0.9181 0.0
0.82715 0.87715 0.0
0.87715 0.82715 0.0
0.9181 0.8181 0.0
0.91357 0.86357 0.0
0.90905 0.90905 0.0
0.86357 0.91357 0.0
0.87036 0.87036 0.0
0.52275 0.97271 0.0
0.54551 0.94541 0.0
0.56826 0.91812 0.0
0.59101 0.89083 0.0
0.65232 0.85214 0.0
0.69088 0.84074 0.0
0.72944 0.82935 0.0
0.768 0.81795 0.0
0.7544 0.85436 0.0
0.7136 0.96359 0.0
0.57046 0.97043 0.0
0.63186 0.88171 0.0
0.7408 0.89077 0.0
0.7272 0.92718 0.0
0.66589 0.96587 0.0
0.61818 0.96815 0.0
0.59093 0.94086 0.0
0.61139 0.91128 0.0
0.67271 0.8726 0.0
0.71355 0.86348 0.0
0.69766 0.89761 0.0
0.68178 0.93174 0.0
0.63635 0.9363 0.0
0.65453 0.90445 0.0
0.63034 0.83011 0.0
0.64692 0.79668 0.0
0.66349 0.76326 0.0
0.68007 0.72983 0.0
0.81239 0.66235 0.0
0.7791 0.77905 0.0
0.66753 0.81734 0.0
0.71315 0.71296 0.0
0.80129 0.70125 0.0
0.7902 0.74015 0.0
0.74191 0.79182 0.0
0.70472 0.80458 0.0
0.68274 0.78255 0.0
0.69794 0.74775 0.0
0.74623 0.69609 0.0
0.77931 0.67922 0.0
0.76684 0.71675 0.0
0.75438 0.75428 0.0
0.71856 0.76842 0.0
0.73239 0.73225 0.0
0.40081 0.84532 0.0
0.42661 0.81563 0.0
0.45242 0.78595 0.0
0.47823 0.75627 0.0
0.54256 0.72055 0.0
0.58108 0.71451 0.0
0.6196 0.70848 0.0
0.65812 0.70244 0.0
0.56601 0.86583 0.0
0.51826 0.86812 0.0
0.47051 0.87041 0.0
0.42275 0.87271 0.0
0.44671 0.84228 0.0
0.5186 0.75098 0.0
0.6397 0.73512 0.0
0.58443 0.83315 0.0
0.47067 0.81184 0.0
0.49464 0.78141 0.0
0.55896 0.74569 0.0
0.59933 0.7404 0.0
0.62128 0.76779 0.0
0.60286 0.80047 0.0
0.53853 0.83619 0.0
0.49262 0.83923 0.0
0.51473 0.80805 0.0
0.53685 0.77687 0.0
0.57906 0.77233 0.0
0.55879 0.80426 0.0
0.275 0.975 0.0
0.3 0.95 0.0
0.325 0.925 0.0
0.35 0.9 0.0
0.54281 0.89266 0.0
0.4732 0.97317 0.0
0.32455 0.97454 0.0
0.3982 0.89817 0.0
0.51961 0.9195 0.0
0.4964 0.94633 0.0
0.42365 0.97362 0.0
0.3741 0.97408 0.0
0.3491 0.94908 0.0
0.37365 0.92362 0.0
0.4464 0.89633 0.0
0.49461 0.8945 0.0
0.47096 0.92087 0.0
0.4473 0.94725 0.0
0.3982 0.94817 0.0
0.4223 0.92225 0.0
0.25104 0.79896 0.0
0.28203 0.81797 0.0
0.31302 0.83698 0.0
0.34401 0.85599 0.0
0.31521 0.88479 0.0
0.2288 0.9712 0.0
0.09021 0.95979 0.0
0.21083 0.83917 0.0
0.28641 0.91359 0.0
0.2576 0.9424 0.0
0.1826 0.9674 0.0
0.13641 0.96359 0.0
0.13042 0.91958 0.0
0.17063 0.87937 0.0
0.24563 0.85437 0.0
0.28042 0.86958 0.0
0.24781 0.90219 0.0
0.21521 0.93479 0.0
0.17281 0.92719 0.0
0.20922 0.89078 0.0
0.51832 0.69612 0.0
0.53261 0.66566 0.0
0.5469 0.63519 0.0
0.56119 0.60473 0.0
0.69131 0.55405 0.0
0.66642 0.66534 0.0
0.55535 0.68843 0.0
0.59372 0.59206 0.0
0.68302 0.59115 0.0
0.67472 0.62824 0.0
0.6294 0.67304 0.0
0.59237 0.68073 0.0
0.56814 0.6563 0.0
0.58093 0.62418 0.0
0.62625 0.57939 0.0
0.65878 0.56672 0.0
0.64899 0.60216 0.0
0.63919 0.6376 0.0
0.60367 0.64695 0.0
0.61496 0.61317 0.0
0.40088 0.64654 0.0
0.42667 0.66655 0.0
0.45246 0.68656 0.0
0.47825 0.70657 0.0
0.37086 0.82611 0.0
0.28101 0.76847 0.0
0.37091 0.67702 0.0
0.4514 0.73646 0.0
0.34091 0.8069 0.0
0.31096 0.78769 0.0
0.31098 0.73799 0.0
0.34094 0.70751 0.0
0.39774 0.69683 0.0
0.42457 0.71665 0.0
0.42455 0.76634 0.0
0.3977 0.79622 0.0
0.3688 0.77681 0.0
0.33989 0.7574 0.0
0.36881 0.72712 0.0
0.39668 0.74673 0.0
0.49475 0.6771 0.0
0.42401 0.62005 0.0
0.49341 0.54058 0.0
0.54425 0.58869 0.0
0.47117 0.65808 0.0
0.44759 0.63907 0.0
0.44715 0.59356 0.0
0.47028 0.56707 0.0
0.51036 0.55662 0.0
0.5273 0.57265 0.0
0.52775 0.61816 0.0
0.51125 0.64763 0.0
0.48988 0.62961 0.0
0.46851 0.61158 0.0
0.48943 0.5841 0.0
0.50859 0.60113 0.0

CELLS 30
36 85 4 5 84 103 104 105 106 11 12 13 14 107 108 109 110 111 112 113 114 115 116 117 118 119 120 121 122 123 124 125 126 127 128 129 130
36 86 87 81 84 131 132 133 134 135 136 137 138 139 140 141 142 143 144 145 146 147 148 149 150 151 152 153 154 155 156 157 158 159 160 161 162
36 84 5 6 86 110 109 108 107 15 16 17 18 163 164 165 166 146 145 144 143 167 168 169 170 171 172 173 174 175 176 177 178 179 180 181 182
36 86 6 1 88 166 165 164 163 19 20 21 22 183 184 185 186 187 188 189 190 191 192 193 194 195 196 197 198 199 200 201 202 203 204 205 206
36 86 88 89 87 190 189 188 187 207 208 209 210 211 212 213 214 134 133 132 131 215 216 217 218 219 220 221 222 223 224 225 226 227 228 229 230
36 87 89 80 90 214 213 212 211 231 232 233 234 235 236 237 238 239 240 241 242 243 244 245 246 247 248 249 250 251 252 253 254 255 256 257 258
36 3 61 91 82 64 65 66 67 259 260 261 262 263 264 265 266 267 268 269 270 271 272 273 274 275 276 277 278 279 280 281 282 283 284 285 286
36 61 62 92 91 68 69 70 71 287 288 289 290 291 292 293 294 262 261 260 259 295 296 297 298 299 300 301 302 303 304 305 306 307 308 309 310
36 91 92 81 93 294 293 292 291 311 312 313 314 315 316 317 318 319 320 321 322 323 324 325 326 327 328 329 330 331 332 333 334 335 336 337 338
36 62 63 85 92 72 73 74 75 339 340 341 342 343 344 345 346 290 289 288 287 347 348 349 350 351 352 353 354 355 356 357 358 359 360 361 362
36 4 85 63 0 106 105 104 103 342 341 340 339 76 77 78 79 7 8 9 10 363 364 365 366 367 368 369 370 371 372 373 374 375 376 377 378
36 84 81 92 85 142 141 140 139 314 313 312 311 346 345 344 343 114 113 112 111 379 380 381 382 383 384 385 386 387 388 389 390 391 392 393 394
36 91 93 94 82 322 321 320 319 395 396 397 398 399 400 401 402 266 265 264 263 403 404 405 406 407 408 409 410 411 412 413 414 415 416 417 418
36 87 90 93 81 242 241 240 239 419 420 421 422 318 317 316 315 138 137 136 135 423 424 425 426 427 428 429 430 431 432 433 434 435 436 437 438
36 93 90 80 94 422 421 420 419 238 237 236 235 439 440 441 442 398 397 396 395 443 444 445 446 447 448 449 450 451 452 453 454 455 456 457 458
36 1 25 95 88 41 40 39 38 459 460 461 462 463 464 465 466 186 185 184 183 467 468 469 470 471 472 473 474 475 476 477 478 479 480 481 482
36 25 24 96 95 37 36 35 34 483 484 485 486 487 488 489 490 462 461 460 459 491 492 493 494 495 496 497 498 499 500 501 502 503 504 505 506
36 95 96 83 97 490 489 488 487 507 508 509 510 511 512 513 514 515 516 517 518 519 520 521 522 523 524 525 526 527 528 529 530 531 532 533 534
36 24 23 98 96 33 32 31 30 535 536 537 538 539 540 541 542 486 485 484 483 543 544 545 546 547 548 549 550 551 552 553 554 555 556 557 558
36 95 97 89 88 518 517 516 515 559 560 561 562 210 209 208 207 466 465 464 463 563 564 565 566 567 568 569 570 571 572 573 574 575 576 577 578
36 97 99 80 89 579 580 581 582 583 584 585 586 234 233 232 231 562 561 560 559 587 588 589 590 591 592 593 594 595 596 597 598 599 600 601 602
36 23 2 42 98 29 28 27 26 45 46 47 48 603 604 605 606 538 537 536 535 607 608 609 610 611 612 613 614 615 616 617 618 619 620 621 622
36 98 42 43 100 606 605 604 603 49 50 51 52 623 624 625 626 627 628 629 630 631 632 633 634 635 636 637 638 639 640 641 642 643 644 645 646
36 96 98 100 83 542 541 540 539 630 629 628 627 647 648 649 650 510 509 508 507 651 652 653 654 655 656 657 658 659 660 661 662 663 664 665 666
36 101 102 83 100 667 668 669 670 671 672 673 674 650 649 648 647 675 676 677 678 679 680 681 682 683 684 685 686 687 688 689 690 691 692 693 694
36 100 43 44 101 626 625 624 623 53 54 55 56 695 696 697 698 678 677 676 675 699 700 701 702 703 704 705 706 707 708 709 710 711 712 713 714
36 101 44 3 82 698 697 696 695 57 58 59 60 270 269 268 267 715 716 717 718 719 720 721 722 723 724 725 726 727 728 729 730 731 732 733 734
36 97 83 102 99 514 513 512 511 674 673 672 671 735 736 737 738 582 581 580 579 739 740 741 742 743 744 745 746 747 748 749 750 751 752 753 754
36 101 82 94 102 718 717 716 715 402 401 400 399 755 756 757 758 670 669 668 667 759 760 761 762 763 764 765 766 767 768 769 770 771 772 773 774
36 102 94 80 99 758 757 756 755 442 441 440 439 586 585 584 583 738 737 736 735 775 776 777 778 779 780 781 782 783 784 785 786 787 788 789 790

CELL_TYPES 30
9
9
9
9
9
9
9
9
9
9
9
9
9
9
9
9
9
9
9
9
9
9
9
9
9
9
9
9
9
9

CELL_DATA 30
SCALARS CellEntityIds int 1
LOOKUP_TABLE default
1
1
1
1
1
1
1
1
1
1
1
1
1
1
1
1
1
1
1
1
1
1
1
1
1
1
1
1
1
1
