# vtk DataFile Version 2.0
t1, Created by Gmsh 4.12.2 
ASCII
DATASET UNSTRUCTURED_GRID
POINTS 417 double
0.0 0.0 0.0
1.0 0.0 0.0
1.0 1.0 0.0
0.0 1.0 0.0
0.5 0.0 0.0
0.0625 0.0 0.0
0.125 0.0 0.0
0.1875 0.0 0.0
0.25 0.0 0.0
0.3125 0.0 0.0
0.375 0.0 0.0
0.4375 0.0 0.0
0.5625 0.0 0.0
0.625 0.0 0.0
0.6875 0.0 0.0
0.75 0.0 0.0
0.8125 0.0 0.0
0.875 0.0 0.0
0.9375 0.0 0.0
1.0 0.5 0.0
1.0 0.9375 0.0
1.0 0.875 0.0
1.0 0.8125 0.0
1.0 0.75 0.0
1.0 0.6875 0.0
1.0 0.625 0.0
1.0 0.5625 0.0
1.0 0.4375 0.0
1.0 0.375 0.0
1.0 0.3125 0.0
1.0 0.25 0.0
1.0 0.1875 0.0
1.0 0.125 0.0
1.0 0.0625 0.0
0.5 1.0 0.0
0.9375 1.0 0.0
0.875 1.0 0.0
0.8125 1.0 0.0
0.75 1.0 0.0
0.6875 1.0 0.0
0.625 1.0 0.0
0.5625 1.0 0.0
0.4375 1.0 0.0
0.375 1.0 0.0
0.3125 1.0 0.0
0.25 1.0 0.0
0.1875 1.0 0.0
0.125 1.0 0.0
0.0625 1.0 0.0
0.0 0.5 0.0
0.0 0.9375 0.0
0.0 0.875 0.0
0.0 0.8125 0.0
0.0 0.75 0.0
0.0 0.6875 0.0
0.0 0.625 0.0
0.0 0.5625 0.0
0.0 0.4375 0.0
0.0 0.375 0.0
0.0 0.3125 0.0
0.0 0.25 0.0
0.0 0.1875 0.0
0.0 0.125 0.0
0.0 0.0625 0.0
0.33071 0.35679 0.0
0.48834 0.51166 0.0
0.64321 0.66929 0.0
0.35187 0.31219 0.0
0.37303 0.26759 0.0
0.39419 0.223 0.0
0.41535 0.1784 0.0
0.43652 0.1338 0.0
0.45768 0.0892 0.0
0.47884 0.0446 0.0
0.93604 0.06396 0.0
0.87208 0.12792 0.0
0.80813 0.19187 0.0
0.74417 0.25583 0.0
0.68021 0.31979 0.0
0.61625 0.38375 0.0
0.5523 0.4477 0.0
0.46863 0.4923 0.0
0.44893 0.47294 0.0
0.42923 0.45359 0.0
0.40952 0.43423 0.0
0.38982 0.41487 0.0
0.37011 0.39551 0.0
0.35041 0.37615 0.0
0.37692 0.32913 0.0
0.53599 0.04702 0.0
0.87889 0.06154 0.0
0.52724 0.43076 0.0
0.40343 0.28211 0.0
0.42994 0.23509 0.0
0.45646 0.18808 0.0
0.48297 0.14106 0.0
0.50948 0.09404 0.0
0.59314 0.04944 0.0
0.65029 0.05186 0.0
0.70744 0.05428 0.0
0.76459 0.0567 0.0
0.82174 0.05912 0.0
0.82028 0.12308 0.0
0.76168 0.18461 0.0
0.70307 0.24615 0.0
0.64446 0.30769 0.0
0.58585 0.36923 0.0
0.50219 0.41383 0.0
0.47714 0.39689 0.0
0.45208 0.37995 0.0
0.42703 0.36301 0.0
0.40198 0.34607 0.0
0.43384 0.29663 0.0
0.56128 0.09888 0.0
0.76848 0.11824 0.0
0.55545 0.35471 0.0
0.4657 0.24719 0.0
0.49756 0.19776 0.0
0.52942 0.14832 0.0
0.61308 0.10372 0.0
0.66488 0.10856 0.0
0.71668 0.1134 0.0
0.71522 0.17735 0.0
0.66197 0.23647 0.0
0.60871 0.29559 0.0
0.52505 0.34019 0.0
0.49464 0.32567 0.0
0.46424 0.31115 0.0
0.50145 0.25929 0.0
0.57587 0.15558 0.0
0.66877 0.17009 0.0
0.57295 0.28349 0.0
0.53866 0.20743 0.0
0.62232 0.16284 0.0
0.62086 0.22679 0.0
0.5372 0.27139 0.0
0.57976 0.21711 0.0
0.04134 0.4821 0.0
0.08268 0.4642 0.0
0.12402 0.4463 0.0
0.16535 0.4284 0.0
0.20669 0.4105 0.0
0.24803 0.39259 0.0
0.28937 0.37469 0.0
0.4273 0.5727 0.0
0.36625 0.63375 0.0
0.30521 0.69479 0.0
0.24417 0.75583 0.0
0.18313 0.81687 0.0
0.12208 0.87792 0.0
0.06104 0.93896 0.0
0.05858 0.88185 0.0
0.0438 0.53921 0.0
0.30661 0.39945 0.0
0.41006 0.54795 0.0
0.05612 0.82474 0.0
0.05365 0.76764 0.0
0.05119 0.71053 0.0
0.04873 0.65342 0.0
0.04626 0.59631 0.0
0.0876 0.51591 0.0
0.1314 0.49262 0.0
0.17521 0.46933 0.0
0.21901 0.44603 0.0
0.26281 0.42274 0.0
0.32385 0.4242 0.0
0.34109 0.44895 0.0
0.35833 0.4737 0.0
0.37557 0.49845 0.0
0.39281 0.5232 0.0
0.35148 0.6036 0.0
0.2929 0.65925 0.0
0.23432 0.7149 0.0
0.17574 0.77055 0.0
0.11716 0.8262 0.0
0.11223 0.77449 0.0
0.09253 0.56763 0.0
0.27759 0.45288 0.0
0.3367 0.57346 0.0
0.10731 0.72277 0.0
0.10238 0.67106 0.0
0.09745 0.61934 0.0
0.13879 0.53894 0.0
0.18506 0.51026 0.0
0.23132 0.48157 0.0
0.29236 0.48303 0.0
0.30714 0.51317 0.0
0.32192 0.54331 0.0
0.28058 0.62372 0.0
0.22447 0.67397 0.0
0.16835 0.72423 0.0
0.16096 0.67791 0.0
0.14618 0.58526 0.0
0.24364 0.51711 0.0
0.26827 0.58818 0.0
0.15357 0.63159 0.0
0.19491 0.55118 0.0
0.25595 0.55264 0.0
0.21461 0.63304 0.0
0.20476 0.59211 0.0
0.41898 0.04684 0.0
0.30788 0.32786 0.0
0.04398 0.42184 0.0
0.05985 0.06026 0.0
0.40047 0.09367 0.0
0.38195 0.14051 0.0
0.36343 0.18735 0.0
0.34492 0.23418 0.0
0.3264 0.28102 0.0
0.2639 0.34352 0.0
0.21992 0.35918 0.0
0.17593 0.37485 0.0
0.13195 0.39051 0.0
0.08797 0.40617 0.0
0.04663 0.36157 0.0
0.04927 0.30131 0.0
0.05192 0.24105 0.0
0.05456 0.18079 0.0
0.05721 0.12052 0.0
0.11971 0.05802 0.0
0.17956 0.05579 0.0
0.23942 0.05355 0.0
0.29927 0.05131 0.0
0.35913 0.04907 0.0
0.34326 0.09815 0.0
0.27977 0.29445 0.0
0.09326 0.34815 0.0
0.11442 0.11605 0.0
0.32739 0.14722 0.0
0.31152 0.1963 0.0
0.29564 0.24537 0.0
0.23314 0.30787 0.0
0.18652 0.3213 0.0
0.13989 0.33472 0.0
0.09855 0.29012 0.0
0.10384 0.2321 0.0
0.10913 0.17407 0.0
0.17163 0.11157 0.0
0.22884 0.1071 0.0
0.28605 0.10262 0.0
0.27282 0.15394 0.0
0.24637 0.25656 0.0
0.14782 0.27894 0.0
0.16369 0.16736 0.0
0.2596 0.20525 0.0
0.1971 0.26775 0.0
0.15576 0.22315 0.0
0.21826 0.16065 0.0
0.20768 0.2142 0.0
0.9554 0.52116 0.0
0.9108 0.54232 0.0
0.8662 0.56348 0.0
0.8216 0.58465 0.0
0.777 0.60581 0.0
0.73241 0.62697 0.0
0.68781 0.64813 0.0
0.62385 0.64959 0.0
0.60449 0.62989 0.0
0.58513 0.61018 0.0
0.56577 0.59048 0.0
0.54641 0.57077 0.0
0.52706 0.55107 0.0
0.5077 0.53137 0.0
0.93846 0.12111 0.0
0.95298 0.46401 0.0
0.67087 0.62308 0.0
0.56924 0.47276 0.0
0.94088 0.17826 0.0
0.9433 0.23541 0.0
0.94572 0.29256 0.0
0.94814 0.34971 0.0
0.95056 0.40686 0.0
0.90596 0.49052 0.0
0.85894 0.51703 0.0
0.81192 0.54354 0.0
0.76491 0.57006 0.0
0.71789 0.59657 0.0
0.65393 0.59802 0.0
0.63699 0.57297 0.0
0.62005 0.54792 0.0
0.60311 0.52286 0.0
0.58617 0.49781 0.0
0.63077 0.41415 0.0
0.69231 0.35554 0.0
0.75385 0.29693 0.0
0.81539 0.23832 0.0
0.87692 0.17972 0.0
0.88176 0.23152 0.0
0.90112 0.43872 0.0
0.70337 0.56616 0.0
0.64529 0.44455 0.0
0.8866 0.28332 0.0
0.89144 0.33512 0.0
0.89628 0.38692 0.0
0.85168 0.47058 0.0
0.80224 0.50244 0.0
0.75281 0.5343 0.0
0.68885 0.53576 0.0
0.67433 0.50536 0.0
0.65981 0.47495 0.0
0.70441 0.39129 0.0
0.76353 0.33803 0.0
0.82265 0.28478 0.0
0.82991 0.33123 0.0
0.84442 0.42413 0.0
0.74071 0.49855 0.0
0.71651 0.42705 0.0
0.83716 0.37768 0.0
0.79257 0.46134 0.0
0.72861 0.4628 0.0
0.77321 0.37914 0.0
0.78289 0.42024 0.0
0.5179 0.95866 0.0
0.5358 0.91732 0.0
0.5537 0.87598 0.0
0.5716 0.83465 0.0
0.5895 0.79331 0.0
0.60741 0.75197 0.0
0.62531 0.71063 0.0
0.95316 0.58102 0.0
0.93974 0.94015 0.0
0.57816 0.95602 0.0
0.67214 0.69212 0.0
0.95093 0.64087 0.0
0.94869 0.70073 0.0
0.94645 0.76058 0.0
0.94421 0.82044 0.0
0.94198 0.88029 0.0
0.87948 0.94279 0.0
0.81921 0.94544 0.0
0.75895 0.94808 0.0
0.69869 0.95073 0.0
0.63843 0.95337 0.0
0.59383 0.91203 0.0
0.60949 0.86805 0.0
0.62515 0.82407 0.0
0.64082 0.78008 0.0
0.65648 0.7361 0.0
0.71898 0.6736 0.0
0.76582 0.65508 0.0
0.81265 0.63657 0.0
0.85949 0.61805 0.0
0.90633 0.59953 0.0
0.90185 0.65674 0.0
0.88395 0.88558 0.0
0.65185 0.90674 0.0
0.70555 0.72023 0.0
0.89738 0.71395 0.0
0.8929 0.77116 0.0
0.88843 0.82837 0.0
0.82593 0.89087 0.0
0.7679 0.89616 0.0
0.70988 0.90145 0.0
0.66528 0.86011 0.0
0.6787 0.81348 0.0
0.69213 0.76686 0.0
0.75463 0.70436 0.0
0.8037 0.68848 0.0
0.85278 0.67261 0.0
0.84606 0.72718 0.0
0.83264 0.83631 0.0
0.72106 0.85218 0.0
0.74344 0.75363 0.0
0.83935 0.78174 0.0
0.77685 0.84424 0.0
0.73225 0.8029 0.0
0.79475 0.7404 0.0
0.7858 0.79232 0.0
0.60055 0.69339 0.0
0.46079 0.9562 0.0
0.11815 0.94142 0.0
0.45205 0.58994 0.0
0.57726 0.73719 0.0
0.55397 0.78099 0.0
0.53067 0.82479 0.0
0.50738 0.8686 0.0
0.48409 0.9124 0.0
0.40369 0.95374 0.0
0.34658 0.95127 0.0
0.28947 0.94881 0.0
0.23236 0.94635 0.0
0.17526 0.94388 0.0
0.1738 0.88284 0.0
0.22945 0.82426 0.0
0.2851 0.76568 0.0
0.34075 0.7071 0.0
0.3964 0.64852 0.0
0.4768 0.60719 0.0
0.50155 0.62443 0.0
0.5263 0.64167 0.0
0.55105 0.65891 0.0
0.5758 0.67615 0.0
0.54712 0.72241 0.0
0.43237 0.90747 0.0
0.22551 0.88777 0.0
0.42654 0.6633 0.0
0.51843 0.76868 0.0
0.48974 0.81494 0.0
0.46106 0.86121 0.0
0.38066 0.90255 0.0
0.32894 0.89762 0.0
0.27723 0.89269 0.0
0.27577 0.83165 0.0
0.32603 0.77553 0.0
0.37628 0.71942 0.0
0.45669 0.67808 0.0
0.48683 0.69286 0.0
0.51697 0.70764 0.0
0.48289 0.75636 0.0
0.41474 0.85382 0.0
0.32209 0.83904 0.0
0.41182 0.73173 0.0
0.44882 0.80509 0.0
0.36841 0.84643 0.0
0.36696 0.78539 0.0
0.44736 0.74405 0.0
0.40789 0.79524 0.0

CELLS 6
81 64 4 1 65 67 68 69 70 71 72 73 12 13 14 15 16 17 18 74 75 76 77 78 79 80 81 82 83 84 85 86 87 88 89 90 91 92 93 94 95 96 97 98 99 100 101 102 103 104 105 106 107 108 109 110 111 112 113 114 115 116 117 118 119 120 121 122 123 124 125 126 127 128 129 130 131 132 133 134 135 136
81 3 49 64 65 50 51 52 53 54 55 56 137 138 139 140 141 142 143 87 86 85 84 83 82 81 144 145 146 147 148 149 150 151 152 153 154 155 156 157 158 159 160 161 162 163 164 165 166 167 168 169 170 171 172 173 174 175 176 177 178 179 180 181 182 183 184 185 186 187 188 189 190 191 192 193 194 195 196 197 198 199
81 4 64 49 0 73 72 71 70 69 68 67 143 142 141 140 139 138 137 57 58 59 60 61 62 63 5 6 7 8 9 10 11 200 201 202 203 204 205 206 207 208 209 210 211 212 213 214 215 216 217 218 219 220 221 222 223 224 225 226 227 228 229 230 231 232 233 234 235 236 237 238 239 240 241 242 243 244 245 246 247 248
81 1 19 66 65 33 32 31 30 29 28 27 249 250 251 252 253 254 255 256 257 258 259 260 261 262 80 79 78 77 76 75 74 263 264 265 266 267 268 269 270 271 272 273 274 275 276 277 278 279 280 281 282 283 284 285 286 287 288 289 290 291 292 293 294 295 296 297 298 299 300 301 302 303 304 305 306 307 308 309 310 311
81 19 2 34 66 26 25 24 23 22 21 20 35 36 37 38 39 40 41 312 313 314 315 316 317 318 255 254 253 252 251 250 249 319 320 321 322 323 324 325 326 327 328 329 330 331 332 333 334 335 336 337 338 339 340 341 342 343 344 345 346 347 348 349 350 351 352 353 354 355 356 357 358 359 360 361 362 363 364 365 366 367
81 66 34 3 65 318 317 316 315 314 313 312 42 43 44 45 46 47 48 150 149 148 147 146 145 144 262 261 260 259 258 257 256 368 369 370 371 372 373 374 375 376 377 378 379 380 381 382 383 384 385 386 387 388 389 390 391 392 393 394 395 396 397 398 399 400 401 402 403 404 405 406 407 408 409 410 411 412 413 414 415 416

CELL_TYPES 6
9
9
9
9
9
9

CELL_DATA 6
SCALARS CellEntityIds int 1
LOOKUP_TABLE default
1
1
1
1
1
1
