# vtk DataFile Version 3.0
vtk output
ASCII
DATASET UNSTRUCTURED_GRID
POINTS 41 float
-0.3986889300 -0.3986889300 0.0000000000
0.0000000000 -0.3986889300 0.0000000000
0.3986889300 -0.3986889300 0.0000000000
-0.3986889300 0.0000000000 0.0000000000
0.0000000000 0.0000000000 0.0000000000
0.3986889300 0.0000000000 0.0000000000
-0.3986889300 0.3986889300 0.0000000000
0.0000000000 0.3986889300 0.0000000000
0.3986889300 0.3986889300 0.0000000000
-0.5549997400 0.5549997400 0.0000000000
0.0000000000 0.7023169700 0.0000000000
0.5549997400 0.5549997400 0.0000000000
-0.7113105400 0.7113105400 0.0000000000
0.0000000000 1.0059450200 0.0000000000
0.7113105400 0.7113105400 0.0000000000
-0.5549997400 -0.5549997400 0.0000000000
-0.7023169700 0.0000000000 0.0000000000
-0.7113105400 -0.7113105400 0.0000000000
-1.0059450200 0.0000000000 0.0000000000
0.7023169700 0.0000000000 0.0000000000
0.5549997400 -0.5549997400 0.0000000000
1.0059450200 0.0000000000 0.0000000000
0.7113105400 -0.7113105400 0.0000000000
0.0000000000 -0.7023169700 0.0000000000
0.0000000000 -1.0059450200 0.0000000000
-1.3556552700 1.3556552700 0.0000000000
0.0000000000 1.5029725100 0.0000000000
1.3556552700 1.3556552700 0.0000000000
-2.0000000000 2.0000000000 0.0000000000
0.0000000000 2.0000000000 0.0000000000
2.0000000000 2.0000000000 0.0000000000
-1.3556552700 -1.3556552700 0.0000000000
-1.5029725100 0.0000000000 0.0000000000
-2.0000000000 -2.0000000000 0.0000000000
-2.0000000000 0.0000000000 0.0000000000
1.5029725100 0.0000000000 0.0000000000
1.3556552700 -1.3556552700 0.0000000000
2.0000000000 0.0000000000 0.0000000000
2.0000000000 -2.0000000000 0.0000000000
0.0000000000 -1.5029725100 0.0000000000
0.0000000000 -2.0000000000 0.0000000000

CELLS 9 90
9 6 0 2 8 3 1 5 7 4 
9 12 6 8 14 9 7 11 13 10 
9 17 0 6 12 15 3 9 18 16 
9 14 8 2 22 11 5 20 21 19 
9 22 2 0 17 20 1 15 24 23 
9 28 12 14 30 25 13 27 29 26 
9 33 17 12 28 31 18 25 34 32 
9 30 14 22 38 27 21 36 37 35 
9 38 22 17 33 36 24 31 40 39 

CELL_TYPES 9
28
28
28
28
28
28
28
28
28

CELL_DATA 9
SCALARS CellID int
LOOKUP_TABLE default
1
1
1
1
1
1
1
1
1
