# vtk DataFile Version 3.0
vtk output
ASCII
DATASET UNSTRUCTURED_GRID
POINTS 153 double
-1.1993444670 -1.1993444670 0.0000000000
-1.0000000000 -1.1993444670 0.0000000000
-0.8006555330 -1.1993444670 0.0000000000
-1.1993444670 -1.0000000000 0.0000000000
-1.0000000000 -1.0000000000 0.0000000000
-0.8006555330 -1.0000000000 0.0000000000
-1.1993444670 -0.8006555330 0.0000000000
-1.0000000000 -0.8006555330 0.0000000000
-0.8006555330 -0.8006555330 0.0000000000
-1.2774998690 -0.7225001310 0.0000000000
-1.0000000000 -0.6488415126 0.0000000000
-0.7225001310 -0.7225001310 0.0000000000
-1.3556552710 -0.6443447290 0.0000000000
-1.0000000000 -0.4970274922 0.0000000000
-0.6443447290 -0.6443447290 0.0000000000
-1.2774998690 -1.2774998690 0.0000000000
-1.3511584874 -1.0000000000 0.0000000000
-1.3556552710 -1.3556552710 0.0000000000
-1.5029725078 -1.0000000000 0.0000000000
-0.6488415126 -1.0000000000 0.0000000000
-0.7225001310 -1.2774998690 0.0000000000
-0.4970274922 -1.0000000000 0.0000000000
-0.6443447290 -1.3556552710 0.0000000000
-1.0000000000 -1.3511584874 0.0000000000
-1.0000000000 -1.5029725078 0.0000000000
-1.6778276355 -0.3221723645 0.0000000000
-1.0000000000 -0.2485137461 0.0000000000
-0.3221723645 -0.3221723645 0.0000000000
-2.0000000000 0.0000000000 0.0000000000
-1.0000000000 0.0000000000 0.0000000000
0.0000000000 0.0000000000 0.0000000000
-1.6778276355 -1.6778276355 0.0000000000
-1.7514862539 -1.0000000000 0.0000000000
-2.0000000000 -2.0000000000 0.0000000000
-2.0000000000 -1.0000000000 0.0000000000
-0.2485137461 -1.0000000000 0.0000000000
-0.3221723645 -1.6778276355 0.0000000000
0.0000000000 -1.0000000000 0.0000000000
0.0000000000 -2.0000000000 0.0000000000
-1.0000000000 -1.7514862539 0.0000000000
-1.0000000000 -2.0000000000 0.0000000000
0.8006555330 -1.1993444670 0.0000000000
1.0000000000 -1.1993444670 0.0000000000
1.1993444670 -1.1993444670 0.0000000000
0.8006555330 -1.0000000000 0.0000000000
1.0000000000 -1.0000000000 0.0000000000
1.1993444670 -1.0000000000 0.0000000000
0.8006555330 -0.8006555330 0.0000000000
1.0000000000 -0.8006555330 0.0000000000
1.1993444670 -0.8006555330 0.0000000000
0.7225001310 -0.7225001310 0.0000000000
1.0000000000 -0.6488415126 0.0000000000
1.2774998690 -0.7225001310 0.0000000000
0.6443447290 -0.6443447290 0.0000000000
1.0000000000 -0.4970274922 0.0000000000
1.3556552710 -0.6443447290 0.0000000000
0.7225001310 -1.2774998690 0.0000000000
0.6488415126 -1.0000000000 0.0000000000
0.6443447290 -1.3556552710 0.0000000000
0.4970274922 -1.0000000000 0.0000000000
1.3511584874 -1.0000000000 0.0000000000
1.2774998690 -1.2774998690 0.0000000000
1.5029725078 -1.0000000000 0.0000000000
1.3556552710 -1.3556552710 0.0000000000
1.0000000000 -1.3511584874 0.0000000000
1.0000000000 -1.5029725078 0.0000000000
0.3221723645 -0.3221723645 0.0000000000
1.0000000000 -0.2485137461 0.0000000000
1.6778276355 -0.3221723645 0.0000000000
1.0000000000 0.0000000000 0.0000000000
2.0000000000 0.0000000000 0.0000000000
0.3221723645 -1.6778276355 0.0000000000
0.2485137461 -1.0000000000 0.0000000000
1.7514862539 -1.0000000000 0.0000000000
1.6778276355 -1.6778276355 0.0000000000
2.0000000000 -1.0000000000 0.0000000000
2.0000000000 -2.0000000000 0.0000000000
1.0000000000 -1.7514862539 0.0000000000
1.0000000000 -2.0000000000 0.0000000000
-1.1993444670 0.8006555330 0.0000000000
-1.0000000000 0.8006555330 0.0000000000
-0.8006555330 0.8006555330 0.0000000000
-1.1993444670 1.0000000000 0.0000000000
-1.0000000000 1.0000000000 0.0000000000
-0.8006555330 1.0000000000 0.0000000000
-1.1993444670 1.1993444670 0.0000000000
-1.0000000000 1.1993444670 0.0000000000
-0.8006555330 1.1993444670 0.0000000000
-1.2774998690 1.2774998690 0.0000000000
-1.0000000000 1.3511584874 0.0000000000
-0.7225001310 1.2774998690 0.0000000000
-1.3556552710 1.3556552710 0.0000000000
-1.0000000000 1.5029725078 0.0000000000
-0.6443447290 1.3556552710 0.0000000000
-1.2774998690 0.7225001310 0.0000000000
-1.3511584874 1.0000000000 0.0000000000
-1.3556552710 0.6443447290 0.0000000000
-1.5029725078 1.0000000000 0.0000000000
-0.6488415126 1.0000000000 0.0000000000
-0.7225001310 0.7225001310 0.0000000000
-0.4970274922 1.0000000000 0.0000000000
-0.6443447290 0.6443447290 0.0000000000
-1.0000000000 0.6488415126 0.0000000000
-1.0000000000 0.4970274922 0.0000000000
-1.6778276355 1.6778276355 0.0000000000
-1.0000000000 1.7514862539 0.0000000000
-0.3221723645 1.6778276355 0.0000000000
-2.0000000000 2.0000000000 0.0000000000
-1.0000000000 2.0000000000 0.0000000000
0.0000000000 2.0000000000 0.0000000000
-1.6778276355 0.3221723645 0.0000000000
-1.7514862539 1.0000000000 0.0000000000
-2.0000000000 1.0000000000 0.0000000000
-0.2485137461 1.0000000000 0.0000000000
-0.3221723645 0.3221723645 0.0000000000
0.0000000000 1.0000000000 0.0000000000
-1.0000000000 0.2485137461 0.0000000000
0.8006555330 0.8006555330 0.0000000000
1.0000000000 0.8006555330 0.0000000000
1.1993444670 0.8006555330 0.0000000000
0.8006555330 1.0000000000 0.0000000000
1.0000000000 1.0000000000 0.0000000000
1.1993444670 1.0000000000 0.0000000000
0.8006555330 1.1993444670 0.0000000000
1.0000000000 1.1993444670 0.0000000000
1.1993444670 1.1993444670 0.0000000000
0.7225001310 1.2774998690 0.0000000000
1.0000000000 1.3511584874 0.0000000000
1.2774998690 1.2774998690 0.0000000000
0.6443447290 1.3556552710 0.0000000000
1.0000000000 1.5029725078 0.0000000000
1.3556552710 1.3556552710 0.0000000000
0.7225001310 0.7225001310 0.0000000000
0.6488415126 1.0000000000 0.0000000000
0.6443447290 0.6443447290 0.0000000000
0.4970274922 1.0000000000 0.0000000000
1.3511584874 1.0000000000 0.0000000000
1.2774998690 0.7225001310 0.0000000000
1.5029725078 1.0000000000 0.0000000000
1.3556552710 0.6443447290 0.0000000000
1.0000000000 0.6488415126 0.0000000000
1.0000000000 0.4970274922 0.0000000000
0.3221723645 1.6778276355 0.0000000000
1.0000000000 1.7514862539 0.0000000000
1.6778276355 1.6778276355 0.0000000000
1.0000000000 2.0000000000 0.0000000000
2.0000000000 2.0000000000 0.0000000000
0.3221723645 0.3221723645 0.0000000000
0.2485137461 1.0000000000 0.0000000000
1.7514862539 1.0000000000 0.0000000000
1.6778276355 0.3221723645 0.0000000000
2.0000000000 1.0000000000 0.0000000000
1.0000000000 0.2485137461 0.0000000000

CELLS 36 360
9 6 0 2 8 3 1 5 7 4 
9 12 6 8 14 9 7 11 13 10 
9 17 0 6 12 15 3 9 18 16 
9 14 8 2 22 11 5 20 21 19 
9 22 2 0 17 20 1 15 24 23 
9 28 12 14 30 25 13 27 29 26 
9 33 17 12 28 31 18 25 34 32 
9 30 14 22 38 27 21 36 37 35 
9 38 22 17 33 36 24 31 40 39 
9 47 41 43 49 44 42 46 48 45 
9 53 47 49 55 50 48 52 54 51 
9 58 41 47 53 56 44 50 59 57 
9 55 49 43 63 52 46 61 62 60 
9 63 43 41 58 61 42 56 65 64 
9 30 53 55 70 66 54 68 69 67 
9 38 58 53 30 71 59 66 37 72 
9 70 55 63 76 68 62 74 75 73 
9 76 63 58 38 74 65 71 78 77 
9 85 79 81 87 82 80 84 86 83 
9 91 85 87 93 88 86 90 92 89 
9 96 79 85 91 94 82 88 97 95 
9 93 87 81 101 90 84 99 100 98 
9 101 81 79 96 99 80 94 103 102 
9 107 91 93 109 104 92 106 108 105 
9 28 96 91 107 110 97 104 112 111 
9 109 93 101 30 106 100 114 115 113 
9 30 101 96 28 114 103 110 29 116 
9 123 117 119 125 120 118 122 124 121 
9 129 123 125 131 126 124 128 130 127 
9 134 117 123 129 132 120 126 135 133 
9 131 125 119 139 128 122 137 138 136 
9 139 119 117 134 137 118 132 141 140 
9 109 129 131 146 142 130 144 145 143 
9 30 134 129 109 147 135 142 115 148 
9 146 131 139 70 144 138 150 151 149 
9 70 139 134 30 150 141 147 69 152 

CELL_TYPES 36
28
28
28
28
28
28
28
28
28
28
28
28
28
28
28
28
28
28
28
28
28
28
28
28
28
28
28
28
28
28
28
28
28
28
28
28

CELL_DATA 36
SCALARS CellID int
LOOKUP_TABLE default
1
1
1
1
1
2
2
2
2
1
1
1
1
1
2
2
2
2
1
1
1
1
1
2
2
2
2
1
1
1
1
1
2
2
2
2

SCALARS PinID int
LOOKUP_TABLE default
1
1
1
1
1
1
1
1
1
1
1
1
1
1
1
1
1
1
1
1
1
1
1
1
1
1
1
1
1
1
1
1
1
1
1
1
