# vtk DataFile Version 2.0
tri, Created by Gmsh
ASCII
DATASET UNSTRUCTURED_GRID
POINTS 9 double
0 0 0
1 0 0
1 1 0
0 1 0
0.4999999999986718 0 0
1 0.4999999999986718 0
0.5000000000013305 1 0
0 0.5000000000013305 0
0.5000000000000011 0.5000000000000011 0

CELLS 4 20
4 0 4 8 7
4 4 1 5 8
4 8 5 2 6
4 7 8 6 3

CELL_TYPES 4
9
9
9
9

CELL_DATA 16
SCALARS CellEntityIds int 1
LOOKUP_TABLE default
1
1
1
1
