# vtk DataFile Version 2.0
test, Created by Gmsh 4.12.2 
ASCII
DATASET UNSTRUCTURED_GRID
POINTS 12 double
0.0 0.0 0.0
1.0 0.0 0.0
1.0 1.0 0.0
0.0 1.0 0.0
0.5 0.0 0.0
1.0 0.5 0.0
0.5 1.0 0.0
0.0 0.5 0.0
0.7062 0.2938 0.0
0.375 0.375 0.0
0.6438 0.6479 0.0
0.2813 0.7188 0.0
 
CELLS 14 56
3 2 6 10
3 7 0 9
3 0 4 9
3 5 2 10
3 6 3 11
3 3 7 11
3 1 5 8
3 4 1 8
3 10 6 11
3 4 8 9
3 9 8 10
3 7 9 11
3 9 10 11
3 8 5 10
 
CELL_TYPES 14
5
5
5
5
5
5
5
5
5
5
5
5
5
5
 
CELL_DATA 14
SCALARS CellEntityIds int 1
LOOKUP_TABLE default
1
1
1
1
1
1
1
1
1
1
1
1
1
1
