# vtk DataFile Version 2.0
t1, Created by Gmsh 4.12.2 
ASCII
DATASET UNSTRUCTURED_GRID
POINTS 11 double
0 0 0
1 0 0
1 1 0
0 1 0
0.499999999998694 0 0
1 0.5000000000020591 0
0.5000000000020591 1 0
0 0.5000000000020591 0
0.5000407391734344 0.5008681601800632 0
0.3535353995009651 0.353837357072897 0
0.6455331172539379 0.649428612098448 0

CELLS 6 30
4 7 0 4 9
4 6 10 5 2
4 3 8 10 6
4 1 8 9 4
4 3 7 9 8
4 1 5 10 8

CELL_TYPES 6
9
9
9
9
9
9

CELL_DATA 6
SCALARS CellEntityIds int 1
LOOKUP_TABLE default
1
1
1
1
1
1
