# vtk DataFile Version 2.0
t1, Created by Gmsh 4.12.2 
ASCII
DATASET UNSTRUCTURED_GRID
POINTS 9 double
0 0 0
1 0 0
1 1 0
0 1 0
0.499999999998694 0 0
1 0.5000000000020591 0
0.5000000000020591 1 0
0 0.5000000000020591 0
0.5000000000003766 0.5000000000020591 0

CELLS 4 20
4 3 7 8 6
4 6 8 5 2
4 7 0 4 8
4 8 4 1 5

CELL_TYPES 4
9
9
9
9

CELL_DATA 4
SCALARS CellEntityIds int 1
LOOKUP_TABLE default
1
1
1
1
