# vtk DataFile Version 2.0
square, Created by Gmsh 4.12.2 
ASCII
DATASET UNSTRUCTURED_GRID
POINTS 9 double
-0.5 -0.5 0.0
0.5 -0.5 0.0
0.5 0.5 0.0
-0.5 0.5 0.0
-1e-12 -0.5 0.0
0.5 -1e-12 0.0
1e-12 0.5 0.0
-0.5 1e-12 0.0
0.0 0.0 0.0
 
CELLS 4 20
4 2 6 8 5
4 5 8 4 1
4 6 3 7 8
4 8 7 0 4

CELL_TYPES 4
9
9
9
9

CELL_DATA 4
SCALARS CellEntityIds int 1
LOOKUP_TABLE default
1
1
1
1
