# vtk DataFile Version 2.0
t1, Created by Gmsh 4.12.2 
ASCII
DATASET UNSTRUCTURED_GRID
POINTS 81 double
0 0 0
1 0 0
1 1 0
0 1 0
0.1249999999997731 0 0
0.2499999999994109 0 0
0.374999999999046 0 0
0.4999999999986918 0 0
0.6249999999990101 0 0
0.7499999999993401 0 0
0.87499999999967 0 0
1 0.8749999999995017 0
1 0.7500000000003477 0
1 0.6250000000012155 0
1 0.5000000000020616 0
1 0.375000000001563 0
1 0.2500000000010419 0
1 0.125000000000521 0
0.8749999999995017 1 0
0.7500000000003477 1 0
0.6250000000012155 1 0
0.5000000000020616 1 0
0.375000000001563 1 0
0.2500000000010419 1 0
0.125000000000521 1 0
0 0.8749999999995017 0
0 0.7500000000003477 0
0 0.6250000000012155 0
0 0.5000000000020616 0
0 0.375000000001563 0
0 0.2500000000010419 0
0 0.125000000000521 0
0.1250000000004276 0.8749999999995017 0
0.2500000000008381 0.8749999999995015 0
0.3750000000012483 0.8749999999995017 0
0.5000000000016404 0.8749999999995017 0
0.6250000000009397 0.8749999999995017 0
0.7500000000002218 0.8749999999995017 0
0.8749999999995228 0.8749999999995017 0
0.1250000000003341 0.7500000000003479 0
0.2500000000006342 0.7500000000003477 0
0.3750000000009336 0.7500000000003477 0
0.5000000000012191 0.7500000000003477 0
0.6250000000006641 0.7500000000003477 0
0.7500000000000957 0.7500000000003477 0
0.8749999999995437 0.7500000000003477 0
0.1250000000002406 0.6250000000012155 0
0.2500000000004304 0.6250000000012155 0
0.3750000000006191 0.6250000000012155 0
0.5000000000007979 0.6250000000012155 0
0.6250000000003886 0.6250000000012155 0
0.7499999999999698 0.6250000000012155 0
0.8749999999995648 0.6250000000012155 0
0.1250000000001471 0.5000000000020616 0
0.2500000000002264 0.5000000000020617 0
0.3750000000003046 0.5000000000020616 0
0.5000000000003767 0.5000000000020616 0
0.6250000000001128 0.5000000000020616 0
0.7499999999998439 0.5000000000020616 0
0.8749999999995859 0.5000000000020616 0
0.1250000000000536 0.3750000000015631 0
0.2500000000000225 0.375000000001563 0
0.37499999999999 0.375000000001563 0
0.4999999999999555 0.375000000001563 0
0.624999999999837 0.375000000001563 0
0.749999999999718 0.375000000001563 0
0.8749999999996068 0.375000000001563 0
0.1249999999999601 0.2500000000010419 0
0.2499999999998186 0.2500000000010419 0
0.3749999999996753 0.2500000000010419 0
0.4999999999995343 0.2500000000010419 0
0.6249999999995615 0.2500000000010419 0
0.7499999999995921 0.2500000000010419 0
0.8749999999996281 0.2500000000010419 0
0.1249999999998666 0.125000000000521 0
0.2499999999996148 0.125000000000521 0
0.3749999999993607 0.125000000000521 0
0.499999999999113 0.125000000000521 0
0.6249999999992859 0.125000000000521 0
0.749999999999466 0.125000000000521 0
0.8749999999996489 0.125000000000521 0

CELLS 64 320
4 3 25 32 24
4 24 32 33 23
4 23 33 34 22
4 22 34 35 21
4 21 35 36 20
4 20 36 37 19
4 19 37 38 18
4 18 38 11 2
4 25 26 39 32
4 32 39 40 33
4 33 40 41 34
4 34 41 42 35
4 35 42 43 36
4 36 43 44 37
4 37 44 45 38
4 38 45 12 11
4 26 27 46 39
4 39 46 47 40
4 40 47 48 41
4 41 48 49 42
4 42 49 50 43
4 43 50 51 44
4 44 51 52 45
4 45 52 13 12
4 27 28 53 46
4 46 53 54 47
4 47 54 55 48
4 48 55 56 49
4 49 56 57 50
4 50 57 58 51
4 51 58 59 52
4 52 59 14 13
4 28 29 60 53
4 53 60 61 54
4 54 61 62 55
4 55 62 63 56
4 56 63 64 57
4 57 64 65 58
4 58 65 66 59
4 59 66 15 14
4 29 30 67 60
4 60 67 68 61
4 61 68 69 62
4 62 69 70 63
4 63 70 71 64
4 64 71 72 65
4 65 72 73 66
4 66 73 16 15
4 30 31 74 67
4 67 74 75 68
4 68 75 76 69
4 69 76 77 70
4 70 77 78 71
4 71 78 79 72
4 72 79 80 73
4 73 80 17 16
4 31 0 4 74
4 74 4 5 75
4 75 5 6 76
4 76 6 7 77
4 77 7 8 78
4 78 8 9 79
4 79 9 10 80
4 80 10 1 17

CELL_TYPES 64
9
9
9
9
9
9
9
9
9
9
9
9
9
9
9
9
9
9
9
9
9
9
9
9
9
9
9
9
9
9
9
9
9
9
9
9
9
9
9
9
9
9
9
9
9
9
9
9
9
9
9
9
9
9
9
9
9
9
9
9
9
9
9
9

CELL_DATA 64
SCALARS CellEntityIds int 1
LOOKUP_TABLE default
1
1
1
1
1
1
1
1
1
1
1
1
1
1
1
1
1
1
1
1
1
1
1
1
1
1
1
1
1
1
1
1
1
1
1
1
1
1
1
1
1
1
1
1
1
1
1
1
1
1
1
1
1
1
1
1
1
1
1
1
1
1
1
1
