# vtk DataFile Version 2.0
t1, Created by Gmsh 4.12.2 
ASCII
DATASET UNSTRUCTURED_GRID
POINTS 49 double
0 0 0
1 0 0
1 1 0
0 1 0
0.1666666666663217 0 0
0.3333333333325025 0 0
0.4999999999986943 0 0
0.6666666666657889 0 0
0.8333333333328945 0 0
1 0.8333333333331019 0
1 0.6666666666675911 0
1 0.5000000000020587 0
1 0.3333333333347203 0
1 0.1666666666673601 0
0.8333333333331019 1 0
0.6666666666675911 1 0
0.5000000000020587 1 0
0.3333333333347203 1 0
0.1666666666673601 1 0
0 0.8333333333331019 0
0 0.6666666666675911 0
0 0.5000000000020587 0
0 0.3333333333347203 0
0 0.1666666666673601 0
0.166666666667187 0.8333333333331018 0
0.3333333333343507 0.8333333333331019 0
0.500000000001498 0.8333333333331019 0
0.6666666666672909 0.8333333333331019 0
0.8333333333330675 0.8333333333331019 0
0.166666666667014 0.6666666666675913 0
0.3333333333339811 0.6666666666675911 0
0.5000000000009371 0.6666666666675911 0
0.6666666666669903 0.6666666666675911 0
0.8333333333330328 0.6666666666675911 0
0.1666666666668409 0.5000000000020587 0
0.3333333333336114 0.5000000000020587 0
0.5000000000003765 0.5000000000020587 0
0.6666666666666901 0.5000000000020587 0
0.8333333333329982 0.5000000000020587 0
0.1666666666666678 0.3333333333347203 0
0.3333333333332418 0.3333333333347203 0
0.4999999999998158 0.3333333333347203 0
0.6666666666663896 0.3333333333347203 0
0.8333333333329636 0.3333333333347203 0
0.1666666666664947 0.1666666666673601 0
0.3333333333328722 0.1666666666673601 0
0.4999999999992549 0.1666666666673601 0
0.6666666666660892 0.1666666666673601 0
0.8333333333329291 0.1666666666673601 0

CELLS 36 180
4 3 19 24 18
4 18 24 25 17
4 17 25 26 16
4 16 26 27 15
4 15 27 28 14
4 14 28 9 2
4 19 20 29 24
4 24 29 30 25
4 25 30 31 26
4 26 31 32 27
4 27 32 33 28
4 28 33 10 9
4 20 21 34 29
4 29 34 35 30
4 30 35 36 31
4 31 36 37 32
4 32 37 38 33
4 33 38 11 10
4 21 22 39 34
4 34 39 40 35
4 35 40 41 36
4 36 41 42 37
4 37 42 43 38
4 38 43 12 11
4 22 23 44 39
4 39 44 45 40
4 40 45 46 41
4 41 46 47 42
4 42 47 48 43
4 43 48 13 12
4 23 0 4 44
4 44 4 5 45
4 45 5 6 46
4 46 6 7 47
4 47 7 8 48
4 48 8 1 13

CELL_TYPES 36
9
9
9
9
9
9
9
9
9
9
9
9
9
9
9
9
9
9
9
9
9
9
9
9
9
9
9
9
9
9
9
9
9
9
9
9

CELL_DATA 36
SCALARS CellEntityIds int 1
LOOKUP_TABLE default
1
1
1
1
1
1
1
1
1
1
1
1
1
1
1
1
1
1
1
1
1
1
1
1
1
1
1
1
1
1
1
1
1
1
1
1
