# vtk DataFile Version 2.0
t1, Created by Gmsh 4.12.2 
ASCII
DATASET UNSTRUCTURED_GRID
POINTS 169 double
0 0 0
1 0 0
1 1 0
0 1 0
0.0833333333331733 0 0
0.1666666666663215 0 0
0.2499999999994118 0 0
0.3333333333325021 0 0
0.4166666666655924 0 0
0.4999999999986937 0 0
0.5833333333322356 0 0
0.6666666666657886 0 0
0.7499999999993414 0 0
0.8333333333328943 0 0
0.916666666666447 0 0
1 0.9166666666663197 0
1 0.833333333333102 0
1 0.7500000000003468 0
1 0.6666666666675916 0
1 0.5833333333348365 0
1 0.5000000000020597 0
1 0.416666666668401 0
1 0.3333333333347208 0
1 0.2500000000010406 0
1 0.1666666666673604 0
1 0.0833333333336802 0
0.9166666666663197 1 0
0.833333333333102 1 0
0.7500000000003468 1 0
0.6666666666675916 1 0
0.5833333333348365 1 0
0.5000000000020597 1 0
0.416666666668401 1 0
0.3333333333347208 1 0
0.2500000000010406 1 0
0.1666666666673604 1 0
0.0833333333336802 1 0
0 0.9166666666663197 0
0 0.833333333333102 0
0 0.7500000000003468 0
0 0.6666666666675916 0
0 0.5833333333348365 0
0 0.5000000000020597 0
0 0.416666666668401 0
0 0.3333333333347208 0
0 0.2500000000010406 0
0 0.1666666666673604 0
0 0.0833333333336802 0
0.08333333333363795 0.9166666666663197 0
0.1666666666672738 0.9166666666663195 0
0.2500000000009049 0.9166666666663197 0
0.333333333334536 0.9166666666663197 0
0.416666666668167 0.9166666666663197 0
0.500000000001779 0.9166666666663197 0
0.5833333333346198 0.9166666666663197 0
0.6666666666674412 0.9166666666663197 0
0.7500000000002631 0.9166666666663197 0
0.8333333333330848 0.9166666666663197 0
0.9166666666663303 0.9166666666663197 0
0.08333333333359573 0.833333333333102 0
0.1666666666671873 0.833333333333102 0
0.2500000000007692 0.833333333333102 0
0.3333333333343511 0.833333333333102 0
0.416666666667933 0.833333333333102 0
0.5000000000014988 0.833333333333102 0
0.5833333333344031 0.8333333333331018 0
0.6666666666672911 0.833333333333102 0
0.7500000000001794 0.8333333333331018 0
0.8333333333330675 0.833333333333102 0
0.9166666666663408 0.833333333333102 0
0.0833333333335535 0.7500000000003468 0
0.1666666666671007 0.7500000000003468 0
0.2500000000006334 0.7500000000003469 0
0.3333333333341661 0.7500000000003468 0
0.4166666666676989 0.7500000000003468 0
0.5000000000012181 0.7500000000003468 0
0.5833333333341864 0.7500000000003468 0
0.6666666666671408 0.7500000000003468 0
0.7500000000000955 0.7500000000003468 0
0.8333333333330502 0.7500000000003468 0
0.9166666666663514 0.7500000000003468 0
0.08333333333351121 0.6666666666675916 0
0.1666666666670141 0.6666666666675916 0
0.2500000000004977 0.6666666666675914 0
0.3333333333339812 0.6666666666675916 0
0.4166666666674648 0.6666666666675916 0
0.5000000000009377 0.6666666666675916 0
0.5833333333339694 0.6666666666675916 0
0.6666666666669907 0.6666666666675916 0
0.7500000000000118 0.6666666666675916 0
0.8333333333330328 0.6666666666675916 0
0.9166666666663621 0.6666666666675916 0
0.083333333333469 0.5833333333348363 0
0.1666666666669275 0.5833333333348365 0
0.250000000000362 0.5833333333348365 0
0.3333333333337964 0.5833333333348365 0
0.4166666666672307 0.5833333333348365 0
0.5000000000006573 0.5833333333348365 0
0.5833333333337527 0.5833333333348365 0
0.6666666666668402 0.5833333333348365 0
0.7499999999999281 0.5833333333348365 0
0.8333333333330155 0.5833333333348365 0
0.9166666666663728 0.5833333333348365 0
0.08333333333342675 0.5000000000020597 0
0.1666666666668409 0.5000000000020597 0
0.2500000000002262 0.5000000000020597 0
0.3333333333336115 0.5000000000020597 0
0.4166666666669967 0.5000000000020597 0
0.5000000000003766 0.5000000000020597 0
0.583333333333536 0.5000000000020597 0
0.6666666666666901 0.5000000000020597 0
0.7499999999998441 0.5000000000020597 0
0.8333333333329982 0.5000000000020597 0
0.9166666666663834 0.5000000000020597 0
0.08333333333338454 0.416666666668401 0
0.1666666666667543 0.416666666668401 0
0.2500000000000904 0.416666666668401 0
0.3333333333334266 0.416666666668401 0
0.4166666666667627 0.416666666668401 0
0.5000000000000961 0.416666666668401 0
0.5833333333333193 0.416666666668401 0
0.6666666666665397 0.416666666668401 0
0.7499999999997604 0.416666666668401 0
0.8333333333329809 0.416666666668401 0
0.9166666666663941 0.416666666668401 0
0.08333333333334227 0.3333333333347208 0
0.1666666666666677 0.3333333333347208 0
0.2499999999999548 0.3333333333347209 0
0.3333333333332418 0.3333333333347208 0
0.4166666666665286 0.3333333333347208 0
0.4999999999998157 0.3333333333347208 0
0.5833333333331026 0.3333333333347208 0
0.6666666666663896 0.3333333333347208 0
0.7499999999996767 0.3333333333347208 0
0.8333333333329636 0.3333333333347208 0
0.9166666666664047 0.3333333333347208 0
0.08333333333330005 0.2500000000010406 0
0.1666666666665812 0.2500000000010406 0
0.2499999999998191 0.2500000000010406 0
0.3333333333330568 0.2500000000010406 0
0.4166666666662946 0.2500000000010406 0
0.4999999999995351 0.2500000000010406 0
0.5833333333328858 0.2500000000010406 0
0.6666666666662393 0.2500000000010406 0
0.7499999999995928 0.2500000000010406 0
0.8333333333329462 0.2500000000010406 0
0.9166666666664152 0.2500000000010406 0
0.08333333333325781 0.1666666666673604 0
0.1666666666664947 0.1666666666673604 0
0.2499999999996833 0.1666666666673604 0
0.3333333333328719 0.1666666666673604 0
0.4166666666660606 0.1666666666673604 0
0.4999999999992546 0.1666666666673604 0
0.5833333333326691 0.1666666666673604 0
0.6666666666660892 0.1666666666673604 0
0.7499999999995088 0.1666666666673604 0
0.8333333333329289 0.1666666666673604 0
0.9166666666664258 0.1666666666673604 0
0.08333333333321556 0.0833333333336802 0
0.1666666666664081 0.0833333333336802 0
0.2499999999995475 0.08333333333368022 0
0.3333333333326871 0.0833333333336802 0
0.4166666666658265 0.0833333333336802 0
0.4999999999989742 0.0833333333336802 0
0.5833333333324524 0.0833333333336802 0
0.6666666666659387 0.0833333333336802 0
0.7499999999994253 0.0833333333336802 0
0.8333333333329116 0.0833333333336802 0
0.9166666666664363 0.0833333333336802 0

CELLS 144 720
4 3 37 48 36
4 36 48 49 35
4 35 49 50 34
4 34 50 51 33
4 33 51 52 32
4 32 52 53 31
4 31 53 54 30
4 30 54 55 29
4 29 55 56 28
4 28 56 57 27
4 27 57 58 26
4 26 58 15 2
4 37 38 59 48
4 48 59 60 49
4 49 60 61 50
4 50 61 62 51
4 51 62 63 52
4 52 63 64 53
4 53 64 65 54
4 54 65 66 55
4 55 66 67 56
4 56 67 68 57
4 57 68 69 58
4 58 69 16 15
4 38 39 70 59
4 59 70 71 60
4 60 71 72 61
4 61 72 73 62
4 62 73 74 63
4 63 74 75 64
4 64 75 76 65
4 65 76 77 66
4 66 77 78 67
4 67 78 79 68
4 68 79 80 69
4 69 80 17 16
4 39 40 81 70
4 70 81 82 71
4 71 82 83 72
4 72 83 84 73
4 73 84 85 74
4 74 85 86 75
4 75 86 87 76
4 76 87 88 77
4 77 88 89 78
4 78 89 90 79
4 79 90 91 80
4 80 91 18 17
4 40 41 92 81
4 81 92 93 82
4 82 93 94 83
4 83 94 95 84
4 84 95 96 85
4 85 96 97 86
4 86 97 98 87
4 87 98 99 88
4 88 99 100 89
4 89 100 101 90
4 90 101 102 91
4 91 102 19 18
4 41 42 103 92
4 92 103 104 93
4 93 104 105 94
4 94 105 106 95
4 95 106 107 96
4 96 107 108 97
4 97 108 109 98
4 98 109 110 99
4 99 110 111 100
4 100 111 112 101
4 101 112 113 102
4 102 113 20 19
4 42 43 114 103
4 103 114 115 104
4 104 115 116 105
4 105 116 117 106
4 106 117 118 107
4 107 118 119 108
4 108 119 120 109
4 109 120 121 110
4 110 121 122 111
4 111 122 123 112
4 112 123 124 113
4 113 124 21 20
4 43 44 125 114
4 114 125 126 115
4 115 126 127 116
4 116 127 128 117
4 117 128 129 118
4 118 129 130 119
4 119 130 131 120
4 120 131 132 121
4 121 132 133 122
4 122 133 134 123
4 123 134 135 124
4 124 135 22 21
4 44 45 136 125
4 125 136 137 126
4 126 137 138 127
4 127 138 139 128
4 128 139 140 129
4 129 140 141 130
4 130 141 142 131
4 131 142 143 132
4 132 143 144 133
4 133 144 145 134
4 134 145 146 135
4 135 146 23 22
4 45 46 147 136
4 136 147 148 137
4 137 148 149 138
4 138 149 150 139
4 139 150 151 140
4 140 151 152 141
4 141 152 153 142
4 142 153 154 143
4 143 154 155 144
4 144 155 156 145
4 145 156 157 146
4 146 157 24 23
4 46 47 158 147
4 147 158 159 148
4 148 159 160 149
4 149 160 161 150
4 150 161 162 151
4 151 162 163 152
4 152 163 164 153
4 153 164 165 154
4 154 165 166 155
4 155 166 167 156
4 156 167 168 157
4 157 168 25 24
4 47 0 4 158
4 158 4 5 159
4 159 5 6 160
4 160 6 7 161
4 161 7 8 162
4 162 8 9 163
4 163 9 10 164
4 164 10 11 165
4 165 11 12 166
4 166 12 13 167
4 167 13 14 168
4 168 14 1 25

CELL_TYPES 144
9
9
9
9
9
9
9
9
9
9
9
9
9
9
9
9
9
9
9
9
9
9
9
9
9
9
9
9
9
9
9
9
9
9
9
9
9
9
9
9
9
9
9
9
9
9
9
9
9
9
9
9
9
9
9
9
9
9
9
9
9
9
9
9
9
9
9
9
9
9
9
9
9
9
9
9
9
9
9
9
9
9
9
9
9
9
9
9
9
9
9
9
9
9
9
9
9
9
9
9
9
9
9
9
9
9
9
9
9
9
9
9
9
9
9
9
9
9
9
9
9
9
9
9
9
9
9
9
9
9
9
9
9
9
9
9
9
9
9
9
9
9
9
9

CELL_DATA 144
SCALARS CellEntityIds int 1
LOOKUP_TABLE default
1
1
1
1
1
1
1
1
1
1
1
1
1
1
1
1
1
1
1
1
1
1
1
1
1
1
1
1
1
1
1
1
1
1
1
1
1
1
1
1
1
1
1
1
1
1
1
1
1
1
1
1
1
1
1
1
1
1
1
1
1
1
1
1
1
1
1
1
1
1
1
1
1
1
1
1
1
1
1
1
1
1
1
1
1
1
1
1
1
1
1
1
1
1
1
1
1
1
1
1
1
1
1
1
1
1
1
1
1
1
1
1
1
1
1
1
1
1
1
1
1
1
1
1
1
1
1
1
1
1
1
1
1
1
1
1
1
1
1
1
1
1
1
1
