# vtk DataFile Version 2.0
t1, Created by Gmsh 4.12.2 
ASCII
DATASET UNSTRUCTURED_GRID
POINTS 289 double
0 0 0
1 0 0
1 1 0
0 1 0
0.06249999999987337 0 0
0.124999999999774 0 0
0.1874999999995947 0 0
0.2499999999994127 0 0
0.3124999999992305 0 0
0.3749999999990483 0 0
0.437499999998866 0 0
0.4999999999986947 0 0
0.5624999999988486 0 0
0.624999999999013 0 0
0.6874999999991775 0 0
0.7499999999993421 0 0
0.8124999999995065 0 0
0.874999999999671 0 0
0.9374999999998355 0 0
1 0.9374999999997395 0
1 0.8749999999995008 0
1 0.8124999999999126 0
1 0.7500000000003462 0
1 0.6875000000007796 0
1 0.6250000000012133 0
1 0.5625000000016467 0
1 0.5000000000020585 0
1 0.4375000000018199 0
1 0.3750000000015599 0
1 0.3125000000013 0
1 0.2500000000010399 0
1 0.1875000000007799 0
1 0.12500000000052 0
1 0.0625000000002599 0
0.9374999999997395 1 0
0.8749999999995008 1 0
0.8124999999999126 1 0
0.7500000000003462 1 0
0.6875000000007796 1 0
0.6250000000012133 1 0
0.5625000000016467 1 0
0.5000000000020585 1 0
0.4375000000018199 1 0
0.3750000000015599 1 0
0.3125000000013 1 0
0.2500000000010399 1 0
0.1875000000007799 1 0
0.12500000000052 1 0
0.0625000000002599 1 0
0 0.9374999999997395 0
0 0.8749999999995008 0
0 0.8124999999999126 0
0 0.7500000000003462 0
0 0.6875000000007796 0
0 0.6250000000012133 0
0 0.5625000000016467 0
0 0.5000000000020585 0
0 0.4375000000018199 0
0 0.3750000000015599 0
0 0.3125000000013 0
0 0.2500000000010399 0
0 0.1875000000007799 0
0 0.12500000000052 0
0 0.0625000000002599 0
0.06250000000023574 0.9374999999997395 0
0.1250000000004734 0.9374999999997395 0
0.1875000000007058 0.9374999999997398 0
0.2500000000009382 0.9374999999997395 0
0.3125000000011706 0.9374999999997395 0
0.3750000000014029 0.9374999999997395 0
0.4375000000016352 0.9374999999997395 0
0.5000000000018482 0.9374999999997395 0
0.5625000000014717 0.9374999999997395 0
0.6250000000010757 0.9374999999997395 0
0.6875000000006796 0.9374999999997395 0
0.7500000000002833 0.9374999999997395 0
0.8124999999998873 0.9374999999997395 0
0.8749999999995115 0.9374999999997395 0
0.9374999999997455 0.9374999999997395 0
0.06250000000021159 0.8749999999995008 0
0.1250000000004268 0.8749999999995008 0
0.1875000000006318 0.8749999999995007 0
0.2500000000008364 0.8749999999995008 0
0.3125000000010413 0.8749999999995007 0
0.3750000000012459 0.8749999999995008 0
0.4375000000014506 0.8749999999995008 0
0.5000000000016379 0.8749999999995008 0
0.562500000001297 0.8749999999995008 0
0.6250000000009382 0.8749999999995008 0
0.6875000000005792 0.8749999999995008 0
0.7500000000002207 0.8749999999995008 0
0.8124999999998618 0.8749999999995008 0
0.8749999999995222 0.8749999999995008 0
0.9374999999997515 0.8749999999995008 0
0.06250000000018745 0.8124999999999126 0
0.1250000000003802 0.8124999999999126 0
0.1875000000005577 0.8124999999999125 0
0.2500000000007349 0.8124999999999128 0
0.3125000000009119 0.8124999999999125 0
0.3750000000010889 0.8124999999999125 0
0.437500000001266 0.8124999999999126 0
0.5000000000014279 0.8124999999999126 0
0.562500000001122 0.8124999999999124 0
0.6250000000008008 0.8124999999999126 0
0.6875000000004793 0.8124999999999126 0
0.7500000000001579 0.8124999999999124 0
0.8124999999998365 0.8124999999999126 0
0.8749999999995326 0.8124999999999126 0
0.9374999999997575 0.8124999999999126 0
0.06250000000016327 0.7500000000003462 0
0.1250000000003335 0.7500000000003459 0
0.1875000000004836 0.7500000000003464 0
0.250000000000633 0.7500000000003462 0
0.3125000000007827 0.7500000000003463 0
0.3750000000009319 0.7500000000003462 0
0.4375000000010814 0.7500000000003462 0
0.5000000000012176 0.7500000000003462 0
0.5625000000009472 0.7500000000003462 0
0.6250000000006631 0.7500000000003462 0
0.6875000000003789 0.7500000000003462 0
0.750000000000095 0.7500000000003462 0
0.8124999999998108 0.7500000000003462 0
0.8749999999995433 0.7500000000003462 0
0.9374999999997635 0.7500000000003462 0
0.0625000000001391 0.6875000000007796 0
0.1250000000002869 0.6875000000007796 0
0.1875000000004095 0.6875000000007796 0
0.2500000000005314 0.6875000000007796 0
0.3125000000006532 0.6875000000007796 0
0.3750000000007749 0.6875000000007796 0
0.4375000000008967 0.6875000000007796 0
0.5000000000010073 0.6875000000007796 0
0.5625000000007723 0.6875000000007796 0
0.6250000000005257 0.6875000000007796 0
0.687500000000279 0.6875000000007796 0
0.7500000000000324 0.6875000000007796 0
0.8124999999997856 0.6875000000007796 0
0.8749999999995539 0.6875000000007796 0
0.9374999999997695 0.6875000000007796 0
0.06250000000011495 0.6250000000012133 0
0.1250000000002403 0.6250000000012134 0
0.1875000000003355 0.6250000000012133 0
0.2500000000004297 0.6250000000012133 0
0.312500000000524 0.6250000000012133 0
0.375000000000618 0.6250000000012133 0
0.4375000000007121 0.6250000000012133 0
0.500000000000797 0.6250000000012133 0
0.5625000000005975 0.6250000000012133 0
0.6250000000003882 0.6250000000012133 0
0.6875000000001789 0.6250000000012133 0
0.7499999999999698 0.6250000000012133 0
0.8124999999997604 0.6250000000012133 0
0.8749999999995646 0.6250000000012133 0
0.9374999999997755 0.6250000000012133 0
0.0625000000000908 0.5625000000016467 0
0.1250000000001937 0.5625000000016465 0
0.1875000000002614 0.5625000000016467 0
0.250000000000328 0.5625000000016467 0
0.3125000000003945 0.5625000000016467 0
0.3750000000004611 0.5625000000016467 0
0.4375000000005276 0.5625000000016467 0
0.5000000000005868 0.5625000000016467 0
0.5625000000004226 0.5625000000016467 0
0.6250000000002506 0.5625000000016467 0
0.6875000000000787 0.5625000000016467 0
0.749999999999907 0.5625000000016467 0
0.812499999999735 0.5625000000016467 0
0.8749999999995752 0.5625000000016467 0
0.9374999999997815 0.5625000000016467 0
0.06250000000006666 0.5000000000020585 0
0.125000000000147 0.5000000000020585 0
0.1875000000001873 0.5000000000020585 0
0.2500000000002263 0.5000000000020585 0
0.3125000000002653 0.5000000000020585 0
0.3750000000003041 0.5000000000020585 0
0.4375000000003429 0.5000000000020585 0
0.5000000000003767 0.5000000000020585 0
0.5625000000002476 0.5000000000020585 0
0.6250000000001131 0.5000000000020585 0
0.6874999999999786 0.5000000000020585 0
0.7499999999998441 0.5000000000020585 0
0.8124999999997097 0.5000000000020585 0
0.8749999999995859 0.5000000000020585 0
0.9374999999997875 0.5000000000020585 0
0.06250000000004248 0.4375000000018199 0
0.1250000000001004 0.4375000000018199 0
0.1875000000001132 0.4375000000018198 0
0.2500000000001246 0.4375000000018199 0
0.3125000000001358 0.4375000000018199 0
0.3750000000001471 0.4375000000018199 0
0.4375000000001583 0.4375000000018199 0
0.5000000000001662 0.4375000000018199 0
0.5625000000000728 0.4375000000018199 0
0.6249999999999757 0.4375000000018199 0
0.6874999999998784 0.4375000000018199 0
0.7499999999997813 0.4375000000018199 0
0.8124999999996841 0.4375000000018199 0
0.8749999999995965 0.4375000000018199 0
0.9374999999997935 0.4375000000018199 0
0.0625000000000183 0.3750000000015599 0
0.1250000000000538 0.3750000000015599 0
0.1875000000000391 0.3750000000015599 0
0.2500000000000229 0.3750000000015599 0
0.3125000000000066 0.3750000000015598 0
0.3749999999999901 0.3750000000015599 0
0.4374999999999737 0.3750000000015599 0
0.4999999999999561 0.3750000000015599 0
0.5624999999998979 0.3750000000015599 0
0.624999999999838 0.3750000000015599 0
0.6874999999997783 0.3750000000015599 0
0.7499999999997187 0.3750000000015599 0
0.8124999999996586 0.3750000000015599 0
0.8749999999996072 0.3750000000015599 0
0.9374999999997995 0.3750000000015599 0
0.06249999999999416 0.3125000000012998 0
0.1250000000000071 0.3125000000012998 0
0.1874999999999651 0.3125000000013 0
0.2499999999999212 0.3125000000013 0
0.3124999999998772 0.3125000000013 0
0.3749999999998331 0.3125000000013 0
0.4374999999997891 0.3125000000013 0
0.4999999999997459 0.3125000000013 0
0.5624999999997231 0.3125000000013 0
0.6249999999997006 0.3125000000013 0
0.6874999999996781 0.3125000000013 0
0.7499999999996558 0.3125000000013 0
0.8124999999996334 0.3125000000013 0
0.8749999999996179 0.3125000000013 0
0.9374999999998055 0.3125000000013 0
0.06249999999997001 0.2500000000010399 0
0.1249999999999605 0.2500000000010399 0
0.187499999999891 0.2500000000010399 0
0.2499999999998195 0.2500000000010399 0
0.3124999999997479 0.2500000000010399 0
0.3749999999996761 0.2500000000010399 0
0.4374999999996044 0.2500000000010399 0
0.4999999999995356 0.2500000000010399 0
0.5624999999995481 0.2500000000010399 0
0.6249999999995631 0.2500000000010399 0
0.6874999999995781 0.2500000000010399 0
0.7499999999995932 0.2500000000010399 0
0.8124999999996079 0.2500000000010399 0
0.8749999999996285 0.2500000000010399 0
0.9374999999998115 0.2500000000010399 0
0.06249999999994586 0.1875000000007799 0
0.1249999999999139 0.18750000000078 0
0.1874999999998169 0.18750000000078 0
0.2499999999997178 0.1875000000007799 0
0.3124999999996185 0.1875000000007799 0
0.3749999999995192 0.1875000000007799 0
0.4374999999994198 0.1875000000007799 0
0.4999999999993253 0.1875000000007799 0
0.5624999999993732 0.1875000000007799 0
0.6249999999994255 0.1875000000007799 0
0.6874999999994778 0.1875000000007799 0
0.7499999999995304 0.1875000000007799 0
0.8124999999995827 0.1875000000007799 0
0.8749999999996392 0.1875000000007799 0
0.9374999999998175 0.1875000000007799 0
0.06249999999992169 0.12500000000052 0
0.1249999999998672 0.12500000000052 0
0.1874999999997428 0.12500000000052 0
0.2499999999996161 0.12500000000052 0
0.3124999999994892 0.12500000000052 0
0.3749999999993622 0.12500000000052 0
0.4374999999992352 0.12500000000052 0
0.499999999999115 0.12500000000052 0
0.5624999999991982 0.12500000000052 0
0.6249999999992882 0.12500000000052 0
0.6874999999993779 0.12500000000052 0
0.7499999999994675 0.12500000000052 0
0.8124999999995574 0.12500000000052 0
0.8749999999996498 0.12500000000052 0
0.9374999999998235 0.12500000000052 0
0.06249999999989754 0.0625000000002599 0
0.1249999999998206 0.0625000000002599 0
0.1874999999996688 0.0625000000002599 0
0.2499999999995144 0.0625000000002599 0
0.3124999999993598 0.0625000000002599 0
0.3749999999992053 0.0625000000002599 0
0.4374999999990505 0.0625000000002599 0
0.499999999998905 0.0625000000002599 0
0.5624999999990234 0.0625000000002599 0
0.6249999999991506 0.0625000000002599 0
0.6874999999992776 0.0625000000002599 0
0.7499999999994049 0.0625000000002599 0
0.8124999999995319 0.0625000000002599 0
0.8749999999996605 0.0625000000002599 0
0.9374999999998295 0.0625000000002599 0

CELLS 256 1280
4 3 49 64 48
4 48 64 65 47
4 47 65 66 46
4 46 66 67 45
4 45 67 68 44
4 44 68 69 43
4 43 69 70 42
4 42 70 71 41
4 41 71 72 40
4 40 72 73 39
4 39 73 74 38
4 38 74 75 37
4 37 75 76 36
4 36 76 77 35
4 35 77 78 34
4 34 78 19 2
4 49 50 79 64
4 64 79 80 65
4 65 80 81 66
4 66 81 82 67
4 67 82 83 68
4 68 83 84 69
4 69 84 85 70
4 70 85 86 71
4 71 86 87 72
4 72 87 88 73
4 73 88 89 74
4 74 89 90 75
4 75 90 91 76
4 76 91 92 77
4 77 92 93 78
4 78 93 20 19
4 50 51 94 79
4 79 94 95 80
4 80 95 96 81
4 81 96 97 82
4 82 97 98 83
4 83 98 99 84
4 84 99 100 85
4 85 100 101 86
4 86 101 102 87
4 87 102 103 88
4 88 103 104 89
4 89 104 105 90
4 90 105 106 91
4 91 106 107 92
4 92 107 108 93
4 93 108 21 20
4 51 52 109 94
4 94 109 110 95
4 95 110 111 96
4 96 111 112 97
4 97 112 113 98
4 98 113 114 99
4 99 114 115 100
4 100 115 116 101
4 101 116 117 102
4 102 117 118 103
4 103 118 119 104
4 104 119 120 105
4 105 120 121 106
4 106 121 122 107
4 107 122 123 108
4 108 123 22 21
4 52 53 124 109
4 109 124 125 110
4 110 125 126 111
4 111 126 127 112
4 112 127 128 113
4 113 128 129 114
4 114 129 130 115
4 115 130 131 116
4 116 131 132 117
4 117 132 133 118
4 118 133 134 119
4 119 134 135 120
4 120 135 136 121
4 121 136 137 122
4 122 137 138 123
4 123 138 23 22
4 53 54 139 124
4 124 139 140 125
4 125 140 141 126
4 126 141 142 127
4 127 142 143 128
4 128 143 144 129
4 129 144 145 130
4 130 145 146 131
4 131 146 147 132
4 132 147 148 133
4 133 148 149 134
4 134 149 150 135
4 135 150 151 136
4 136 151 152 137
4 137 152 153 138
4 138 153 24 23
4 54 55 154 139
4 139 154 155 140
4 140 155 156 141
4 141 156 157 142
4 142 157 158 143
4 143 158 159 144
4 144 159 160 145
4 145 160 161 146
4 146 161 162 147
4 147 162 163 148
4 148 163 164 149
4 149 164 165 150
4 150 165 166 151
4 151 166 167 152
4 152 167 168 153
4 153 168 25 24
4 55 56 169 154
4 154 169 170 155
4 155 170 171 156
4 156 171 172 157
4 157 172 173 158
4 158 173 174 159
4 159 174 175 160
4 160 175 176 161
4 161 176 177 162
4 162 177 178 163
4 163 178 179 164
4 164 179 180 165
4 165 180 181 166
4 166 181 182 167
4 167 182 183 168
4 168 183 26 25
4 56 57 184 169
4 169 184 185 170
4 170 185 186 171
4 171 186 187 172
4 172 187 188 173
4 173 188 189 174
4 174 189 190 175
4 175 190 191 176
4 176 191 192 177
4 177 192 193 178
4 178 193 194 179
4 179 194 195 180
4 180 195 196 181
4 181 196 197 182
4 182 197 198 183
4 183 198 27 26
4 57 58 199 184
4 184 199 200 185
4 185 200 201 186
4 186 201 202 187
4 187 202 203 188
4 188 203 204 189
4 189 204 205 190
4 190 205 206 191
4 191 206 207 192
4 192 207 208 193
4 193 208 209 194
4 194 209 210 195
4 195 210 211 196
4 196 211 212 197
4 197 212 213 198
4 198 213 28 27
4 58 59 214 199
4 199 214 215 200
4 200 215 216 201
4 201 216 217 202
4 202 217 218 203
4 203 218 219 204
4 204 219 220 205
4 205 220 221 206
4 206 221 222 207
4 207 222 223 208
4 208 223 224 209
4 209 224 225 210
4 210 225 226 211
4 211 226 227 212
4 212 227 228 213
4 213 228 29 28
4 59 60 229 214
4 214 229 230 215
4 215 230 231 216
4 216 231 232 217
4 217 232 233 218
4 218 233 234 219
4 219 234 235 220
4 220 235 236 221
4 221 236 237 222
4 222 237 238 223
4 223 238 239 224
4 224 239 240 225
4 225 240 241 226
4 226 241 242 227
4 227 242 243 228
4 228 243 30 29
4 60 61 244 229
4 229 244 245 230
4 230 245 246 231
4 231 246 247 232
4 232 247 248 233
4 233 248 249 234
4 234 249 250 235
4 235 250 251 236
4 236 251 252 237
4 237 252 253 238
4 238 253 254 239
4 239 254 255 240
4 240 255 256 241
4 241 256 257 242
4 242 257 258 243
4 243 258 31 30
4 61 62 259 244
4 244 259 260 245
4 245 260 261 246
4 246 261 262 247
4 247 262 263 248
4 248 263 264 249
4 249 264 265 250
4 250 265 266 251
4 251 266 267 252
4 252 267 268 253
4 253 268 269 254
4 254 269 270 255
4 255 270 271 256
4 256 271 272 257
4 257 272 273 258
4 258 273 32 31
4 62 63 274 259
4 259 274 275 260
4 260 275 276 261
4 261 276 277 262
4 262 277 278 263
4 263 278 279 264
4 264 279 280 265
4 265 280 281 266
4 266 281 282 267
4 267 282 283 268
4 268 283 284 269
4 269 284 285 270
4 270 285 286 271
4 271 286 287 272
4 272 287 288 273
4 273 288 33 32
4 63 0 4 274
4 274 4 5 275
4 275 5 6 276
4 276 6 7 277
4 277 7 8 278
4 278 8 9 279
4 279 9 10 280
4 280 10 11 281
4 281 11 12 282
4 282 12 13 283
4 283 13 14 284
4 284 14 15 285
4 285 15 16 286
4 286 16 17 287
4 287 17 18 288
4 288 18 1 33

CELL_TYPES 256
9
9
9
9
9
9
9
9
9
9
9
9
9
9
9
9
9
9
9
9
9
9
9
9
9
9
9
9
9
9
9
9
9
9
9
9
9
9
9
9
9
9
9
9
9
9
9
9
9
9
9
9
9
9
9
9
9
9
9
9
9
9
9
9
9
9
9
9
9
9
9
9
9
9
9
9
9
9
9
9
9
9
9
9
9
9
9
9
9
9
9
9
9
9
9
9
9
9
9
9
9
9
9
9
9
9
9
9
9
9
9
9
9
9
9
9
9
9
9
9
9
9
9
9
9
9
9
9
9
9
9
9
9
9
9
9
9
9
9
9
9
9
9
9
9
9
9
9
9
9
9
9
9
9
9
9
9
9
9
9
9
9
9
9
9
9
9
9
9
9
9
9
9
9
9
9
9
9
9
9
9
9
9
9
9
9
9
9
9
9
9
9
9
9
9
9
9
9
9
9
9
9
9
9
9
9
9
9
9
9
9
9
9
9
9
9
9
9
9
9
9
9
9
9
9
9
9
9
9
9
9
9
9
9
9
9
9
9
9
9
9
9
9
9
9
9
9
9
9
9
9
9
9
9
9
9

CELL_DATA 256
SCALARS CellEntityIds int 1
LOOKUP_TABLE default
1
1
1
1
1
1
1
1
1
1
1
1
1
1
1
1
1
1
1
1
1
1
1
1
1
1
1
1
1
1
1
1
1
1
1
1
1
1
1
1
1
1
1
1
1
1
1
1
1
1
1
1
1
1
1
1
1
1
1
1
1
1
1
1
1
1
1
1
1
1
1
1
1
1
1
1
1
1
1
1
1
1
1
1
1
1
1
1
1
1
1
1
1
1
1
1
1
1
1
1
1
1
1
1
1
1
1
1
1
1
1
1
1
1
1
1
1
1
1
1
1
1
1
1
1
1
1
1
1
1
1
1
1
1
1
1
1
1
1
1
1
1
1
1
1
1
1
1
1
1
1
1
1
1
1
1
1
1
1
1
1
1
1
1
1
1
1
1
1
1
1
1
1
1
1
1
1
1
1
1
1
1
1
1
1
1
1
1
1
1
1
1
1
1
1
1
1
1
1
1
1
1
1
1
1
1
1
1
1
1
1
1
1
1
1
1
1
1
1
1
1
1
1
1
1
1
1
1
1
1
1
1
1
1
1
1
1
1
1
1
1
1
1
1
1
1
1
1
1
1
1
1
1
1
1
1
