# vtk DataFile Version 2.0
t1, Created by Gmsh 4.12.2 
ASCII
DATASET UNSTRUCTURED_GRID
POINTS 225 double
0 0 0
1 0 0
1 1 0
0 1 0
0.07142857142842969 0 0
0.1428571428568673 0 0
0.2142857142852306 0 0
0.2857142857135938 0 0
0.357142857141957 0 0
0.4285714285703203 0 0
0.4999999999986944 0 0
0.5714285714274435 0 0
0.642857142856203 0 0
0.7142857142849623 0 0
0.7857142857137218 0 0
0.8571428571424813 0 0
0.9285714285712405 0 0
1 0.928571428571131 0
1 0.8571428571424603 0
1 0.7857142857143842 0
1 0.7142857142863082 0
1 0.6428571428582326 0
1 0.5714285714301568 0
1 0.5000000000020592 0
1 0.4285714285732117 0
1 0.3571428571443431 0
1 0.2857142857154745 0
1 0.2142857142866058 0
1 0.1428571428577371 0
1 0.0714285714288686 0
0.928571428571131 1 0
0.8571428571424603 1 0
0.7857142857143842 1 0
0.7142857142863082 1 0
0.6428571428582326 1 0
0.5714285714301568 1 0
0.5000000000020592 1 0
0.4285714285732117 1 0
0.3571428571443431 1 0
0.2857142857154745 1 0
0.2142857142866058 1 0
0.1428571428577371 1 0
0.0714285714288686 1 0
0 0.928571428571131 0
0 0.8571428571424603 0
0 0.7857142857143842 0
0 0.7142857142863082 0
0 0.6428571428582326 0
0 0.5714285714301568 0
0 0.5000000000020592 0
0 0.4285714285732117 0
0 0.3571428571443431 0
0 0.2857142857154745 0
0 0.2142857142866058 0
0 0.1428571428577371 0
0 0.0714285714288686 0
0.07142857142883724 0.9285714285711308 0
0.1428571428576749 0.9285714285711311 0
0.2142857142865076 0.9285714285711312 0
0.2857142857153401 0.928571428571131 0
0.3571428571441728 0.9285714285711308 0
0.4285714285730051 0.9285714285711308 0
0.5000000000018189 0.9285714285711312 0
0.5714285714299631 0.9285714285711311 0
0.6428571428580878 0.9285714285711311 0
0.7142857142862119 0.9285714285711311 0
0.7857142857143369 0.9285714285711311 0
0.8571428571424617 0.9285714285711308 0
0.9285714285711387 0.928571428571131 0
0.07142857142880589 0.8571428571424603 0
0.1428571428576129 0.8571428571424604 0
0.2142857142864094 0.8571428571424601 0
0.2857142857152058 0.8571428571424605 0
0.3571428571440022 0.8571428571424602 0
0.4285714285727986 0.8571428571424603 0
0.5000000000015784 0.8571428571424603 0
0.5714285714297692 0.8571428571424605 0
0.6428571428579426 0.8571428571424602 0
0.7142857142861159 0.8571428571424604 0
0.7857142857142896 0.8571428571424605 0
0.8571428571424633 0.8571428571424604 0
0.9285714285711464 0.8571428571424603 0
0.07142857142877455 0.7857142857143842 0
0.1428571428575507 0.7857142857143842 0
0.2142857142863111 0.7857142857143842 0
0.2857142857150715 0.7857142857143842 0
0.3571428571438319 0.7857142857143842 0
0.4285714285725921 0.7857142857143842 0
0.5000000000013382 0.7857142857143842 0
0.5714285714295754 0.7857142857143842 0
0.6428571428577978 0.7857142857143842 0
0.7142857142860197 0.7857142857143842 0
0.7857142857142423 0.7857142857143842 0
0.8571428571424649 0.7857142857143842 0
0.9285714285711544 0.7857142857143842 0
0.07142857142874322 0.714285714286308 0
0.1428571428574886 0.7142857142863082 0
0.2142857142862129 0.7142857142863082 0
0.2857142857149371 0.7142857142863082 0
0.3571428571436614 0.7142857142863082 0
0.4285714285723856 0.7142857142863082 0
0.5000000000010979 0.7142857142863082 0
0.5714285714293817 0.7142857142863082 0
0.6428571428576526 0.7142857142863082 0
0.7142857142859237 0.7142857142863082 0
0.785714285714195 0.7142857142863082 0
0.8571428571424664 0.7142857142863082 0
0.9285714285711626 0.7142857142863082 0
0.07142857142871185 0.6428571428582328 0
0.1428571428574265 0.6428571428582326 0
0.2142857142861146 0.6428571428582326 0
0.2857142857148028 0.6428571428582326 0
0.3571428571434909 0.6428571428582326 0
0.4285714285721791 0.6428571428582326 0
0.5000000000008576 0.6428571428582326 0
0.5714285714291877 0.6428571428582326 0
0.6428571428575078 0.6428571428582326 0
0.7142857142858273 0.6428571428582326 0
0.7857142857141477 0.6428571428582326 0
0.8571428571424677 0.6428571428582326 0
0.92857142857117 0.6428571428582326 0
0.07142857142868049 0.5714285714301567 0
0.1428571428573643 0.5714285714301568 0
0.2142857142860164 0.5714285714301568 0
0.2857142857146684 0.5714285714301568 0
0.3571428571433206 0.5714285714301568 0
0.4285714285719726 0.5714285714301568 0
0.5000000000006172 0.5714285714301568 0
0.5714285714289941 0.5714285714301568 0
0.6428571428573628 0.5714285714301568 0
0.7142857142857314 0.5714285714301568 0
0.7857142857141002 0.5714285714301568 0
0.8571428571424693 0.5714285714301568 0
0.928571428571178 0.5714285714301568 0
0.07142857142864913 0.5000000000020592 0
0.1428571428573022 0.5000000000020592 0
0.2142857142859182 0.5000000000020592 0
0.2857142857145341 0.5000000000020592 0
0.35714285714315 0.5000000000020592 0
0.428571428571766 0.5000000000020592 0
0.5000000000003767 0.5000000000020592 0
0.5714285714288 0.5000000000020592 0
0.6428571428572178 0.5000000000020592 0
0.7142857142856353 0.5000000000020592 0
0.7857142857140531 0.5000000000020592 0
0.8571428571424708 0.5000000000020592 0
0.9285714285711856 0.5000000000020592 0
0.07142857142861779 0.4285714285732117 0
0.14285714285724 0.4285714285732117 0
0.21428571428582 0.4285714285732117 0
0.2857142857143998 0.4285714285732117 0
0.3571428571429797 0.4285714285732118 0
0.4285714285715595 0.4285714285732117 0
0.5000000000001364 0.4285714285732117 0
0.5714285714286064 0.4285714285732117 0
0.6428571428570728 0.4285714285732117 0
0.7142857142855391 0.4285714285732117 0
0.7857142857140056 0.4285714285732117 0
0.8571428571424722 0.4285714285732117 0
0.9285714285711936 0.4285714285732117 0
0.07142857142858645 0.3571428571443431 0
0.1428571428571779 0.3571428571443431 0
0.2142857142857217 0.3571428571443431 0
0.2857142857142654 0.3571428571443431 0
0.3571428571428092 0.3571428571443431 0
0.428571428571353 0.3571428571443431 0
0.4999999999998962 0.3571428571443431 0
0.5714285714284125 0.3571428571443431 0
0.6428571428569279 0.3571428571443431 0
0.7142857142854432 0.3571428571443431 0
0.7857142857139585 0.3571428571443431 0
0.857142857142474 0.3571428571443431 0
0.9285714285712017 0.3571428571443431 0
0.07142857142855509 0.2857142857154746 0
0.1428571428571158 0.2857142857154744 0
0.2142857142856235 0.2857142857154745 0
0.2857142857141311 0.2857142857154745 0
0.3571428571426387 0.2857142857154745 0
0.4285714285711464 0.2857142857154745 0
0.4999999999996557 0.2857142857154745 0
0.5714285714282187 0.2857142857154745 0
0.6428571428567829 0.2857142857154745 0
0.7142857142853468 0.2857142857154745 0
0.785714285713911 0.2857142857154745 0
0.8571428571424753 0.2857142857154745 0
0.9285714285712092 0.2857142857154745 0
0.07142857142852373 0.2142857142866058 0
0.1428571428570537 0.2142857142866058 0
0.2142857142855252 0.2142857142866058 0
0.2857142857139968 0.2142857142866058 0
0.3571428571424684 0.2142857142866058 0
0.4285714285709399 0.2142857142866058 0
0.4999999999994155 0.2142857142866058 0
0.5714285714280251 0.2142857142866058 0
0.6428571428566379 0.2142857142866058 0
0.7142857142852509 0.2142857142866058 0
0.7857142857138637 0.2142857142866058 0
0.8571428571424766 0.2142857142866058 0
0.928571428571217 0.2142857142866058 0
0.07142857142849239 0.1428571428577371 0
0.1428571428569916 0.1428571428577371 0
0.214285714285427 0.1428571428577371 0
0.2857142857138624 0.1428571428577371 0
0.3571428571422978 0.1428571428577371 0
0.4285714285707334 0.1428571428577371 0
0.4999999999991751 0.1428571428577371 0
0.571428571427831 0.1428571428577371 0
0.6428571428564929 0.1428571428577371 0
0.7142857142851544 0.1428571428577371 0
0.7857142857138164 0.1428571428577371 0
0.8571428571424784 0.1428571428577371 0
0.9285714285712248 0.1428571428577371 0
0.07142857142846105 0.07142857142886863 0
0.1428571428569294 0.0714285714288686 0
0.2142857142853288 0.07142857142886863 0
0.2857142857137281 0.0714285714288686 0
0.3571428571421275 0.0714285714288686 0
0.4285714285705269 0.0714285714288686 0
0.4999999999989347 0.0714285714288686 0
0.5714285714276374 0.0714285714288686 0
0.6428571428563479 0.0714285714288686 0
0.7142857142850586 0.0714285714288686 0
0.7857142857137691 0.0714285714288686 0
0.8571428571424797 0.0714285714288686 0
0.9285714285712326 0.0714285714288686 0

CELLS 196 980
4 3 43 56 42
4 42 56 57 41
4 41 57 58 40
4 40 58 59 39
4 39 59 60 38
4 38 60 61 37
4 37 61 62 36
4 36 62 63 35
4 35 63 64 34
4 34 64 65 33
4 33 65 66 32
4 32 66 67 31
4 31 67 68 30
4 30 68 17 2
4 43 44 69 56
4 56 69 70 57
4 57 70 71 58
4 58 71 72 59
4 59 72 73 60
4 60 73 74 61
4 61 74 75 62
4 62 75 76 63
4 63 76 77 64
4 64 77 78 65
4 65 78 79 66
4 66 79 80 67
4 67 80 81 68
4 68 81 18 17
4 44 45 82 69
4 69 82 83 70
4 70 83 84 71
4 71 84 85 72
4 72 85 86 73
4 73 86 87 74
4 74 87 88 75
4 75 88 89 76
4 76 89 90 77
4 77 90 91 78
4 78 91 92 79
4 79 92 93 80
4 80 93 94 81
4 81 94 19 18
4 45 46 95 82
4 82 95 96 83
4 83 96 97 84
4 84 97 98 85
4 85 98 99 86
4 86 99 100 87
4 87 100 101 88
4 88 101 102 89
4 89 102 103 90
4 90 103 104 91
4 91 104 105 92
4 92 105 106 93
4 93 106 107 94
4 94 107 20 19
4 46 47 108 95
4 95 108 109 96
4 96 109 110 97
4 97 110 111 98
4 98 111 112 99
4 99 112 113 100
4 100 113 114 101
4 101 114 115 102
4 102 115 116 103
4 103 116 117 104
4 104 117 118 105
4 105 118 119 106
4 106 119 120 107
4 107 120 21 20
4 47 48 121 108
4 108 121 122 109
4 109 122 123 110
4 110 123 124 111
4 111 124 125 112
4 112 125 126 113
4 113 126 127 114
4 114 127 128 115
4 115 128 129 116
4 116 129 130 117
4 117 130 131 118
4 118 131 132 119
4 119 132 133 120
4 120 133 22 21
4 48 49 134 121
4 121 134 135 122
4 122 135 136 123
4 123 136 137 124
4 124 137 138 125
4 125 138 139 126
4 126 139 140 127
4 127 140 141 128
4 128 141 142 129
4 129 142 143 130
4 130 143 144 131
4 131 144 145 132
4 132 145 146 133
4 133 146 23 22
4 49 50 147 134
4 134 147 148 135
4 135 148 149 136
4 136 149 150 137
4 137 150 151 138
4 138 151 152 139
4 139 152 153 140
4 140 153 154 141
4 141 154 155 142
4 142 155 156 143
4 143 156 157 144
4 144 157 158 145
4 145 158 159 146
4 146 159 24 23
4 50 51 160 147
4 147 160 161 148
4 148 161 162 149
4 149 162 163 150
4 150 163 164 151
4 151 164 165 152
4 152 165 166 153
4 153 166 167 154
4 154 167 168 155
4 155 168 169 156
4 156 169 170 157
4 157 170 171 158
4 158 171 172 159
4 159 172 25 24
4 51 52 173 160
4 160 173 174 161
4 161 174 175 162
4 162 175 176 163
4 163 176 177 164
4 164 177 178 165
4 165 178 179 166
4 166 179 180 167
4 167 180 181 168
4 168 181 182 169
4 169 182 183 170
4 170 183 184 171
4 171 184 185 172
4 172 185 26 25
4 52 53 186 173
4 173 186 187 174
4 174 187 188 175
4 175 188 189 176
4 176 189 190 177
4 177 190 191 178
4 178 191 192 179
4 179 192 193 180
4 180 193 194 181
4 181 194 195 182
4 182 195 196 183
4 183 196 197 184
4 184 197 198 185
4 185 198 27 26
4 53 54 199 186
4 186 199 200 187
4 187 200 201 188
4 188 201 202 189
4 189 202 203 190
4 190 203 204 191
4 191 204 205 192
4 192 205 206 193
4 193 206 207 194
4 194 207 208 195
4 195 208 209 196
4 196 209 210 197
4 197 210 211 198
4 198 211 28 27
4 54 55 212 199
4 199 212 213 200
4 200 213 214 201
4 201 214 215 202
4 202 215 216 203
4 203 216 217 204
4 204 217 218 205
4 205 218 219 206
4 206 219 220 207
4 207 220 221 208
4 208 221 222 209
4 209 222 223 210
4 210 223 224 211
4 211 224 29 28
4 55 0 4 212
4 212 4 5 213
4 213 5 6 214
4 214 6 7 215
4 215 7 8 216
4 216 8 9 217
4 217 9 10 218
4 218 10 11 219
4 219 11 12 220
4 220 12 13 221
4 221 13 14 222
4 222 14 15 223
4 223 15 16 224
4 224 16 1 29

CELL_TYPES 196
9
9
9
9
9
9
9
9
9
9
9
9
9
9
9
9
9
9
9
9
9
9
9
9
9
9
9
9
9
9
9
9
9
9
9
9
9
9
9
9
9
9
9
9
9
9
9
9
9
9
9
9
9
9
9
9
9
9
9
9
9
9
9
9
9
9
9
9
9
9
9
9
9
9
9
9
9
9
9
9
9
9
9
9
9
9
9
9
9
9
9
9
9
9
9
9
9
9
9
9
9
9
9
9
9
9
9
9
9
9
9
9
9
9
9
9
9
9
9
9
9
9
9
9
9
9
9
9
9
9
9
9
9
9
9
9
9
9
9
9
9
9
9
9
9
9
9
9
9
9
9
9
9
9
9
9
9
9
9
9
9
9
9
9
9
9
9
9
9
9
9
9
9
9
9
9
9
9
9
9
9
9
9
9
9
9
9
9
9
9
9
9
9
9
9
9

CELL_DATA 196
SCALARS CellEntityIds int 1
LOOKUP_TABLE default
1
1
1
1
1
1
1
1
1
1
1
1
1
1
1
1
1
1
1
1
1
1
1
1
1
1
1
1
1
1
1
1
1
1
1
1
1
1
1
1
1
1
1
1
1
1
1
1
1
1
1
1
1
1
1
1
1
1
1
1
1
1
1
1
1
1
1
1
1
1
1
1
1
1
1
1
1
1
1
1
1
1
1
1
1
1
1
1
1
1
1
1
1
1
1
1
1
1
1
1
1
1
1
1
1
1
1
1
1
1
1
1
1
1
1
1
1
1
1
1
1
1
1
1
1
1
1
1
1
1
1
1
1
1
1
1
1
1
1
1
1
1
1
1
1
1
1
1
1
1
1
1
1
1
1
1
1
1
1
1
1
1
1
1
1
1
1
1
1
1
1
1
1
1
1
1
1
1
1
1
1
1
1
1
1
1
1
1
1
1
1
1
1
1
1
1
