# vtk DataFile Version 2.0
t1, Created by Gmsh 4.12.2 
ASCII
DATASET UNSTRUCTURED_GRID
POINTS 25 double
0 0 0
1 0 0
1 1 0
0 1 0
0.2499999999994194 0 0
0.499999999998694 0 0
0.749999999999347 0 0
1 0.7500000000009891 0
1 0.5000000000020591 0
1 0.2500000000010296 0
0.7500000000009891 1 0
0.5000000000020591 1 0
0.2500000000010296 1 0
0 0.7500000000009891 0
0 0.5000000000020591 0
0 0.2500000000010296 0
0.5000000000003766 0.5000000000020591 0
0.2500000000001883 0.5000000000020591 0
0.5000000000012179 0.7500000000010296 0
0.250000000000609 0.7500000000010093 0
0.7500000000001883 0.5000000000020591 0
0.7500000000005886 0.7500000000010093 0
0.4999999999995353 0.2500000000010296 0
0.2499999999998038 0.2500000000010296 0
0.7499999999997676 0.2500000000010296 0

CELLS 16 80
4 3 13 19 12
4 13 14 17 19
4 19 17 16 18
4 12 19 18 11
4 11 18 21 10
4 18 16 20 21
4 21 20 8 7
4 10 21 7 2
4 14 15 23 17
4 15 0 4 23
4 23 4 5 22
4 17 23 22 16
4 16 22 24 20
4 22 5 6 24
4 24 6 1 9
4 20 24 9 8

CELL_TYPES 16
9
9
9
9
9
9
9
9
9
9
9
9
9
9
9
9

CELL_DATA 16
SCALARS CellEntityIds int 1
LOOKUP_TABLE default
1
1
1
1
1
1
1
1
1
1
1
1
1
1
1
1
