# vtk DataFile Version 3.0
vtk output
ASCII
DATASET UNSTRUCTURED_GRID
POINTS 25 double
-2.0000000000 -2.0000000000 0.0000000000
-1.0000000000 -2.0000000000 0.0000000000
0.0000000000 -2.0000000000 0.0000000000
-2.0000000000 -1.0000000000 0.0000000000
-1.0000000000 -1.0000000000 0.0000000000
0.0000000000 -1.0000000000 0.0000000000
-2.0000000000 0.0000000000 0.0000000000
-1.0000000000 0.0000000000 0.0000000000
0.0000000000 0.0000000000 0.0000000000
1.0000000000 -2.0000000000 0.0000000000
2.0000000000 -2.0000000000 0.0000000000
1.0000000000 -1.0000000000 0.0000000000
2.0000000000 -1.0000000000 0.0000000000
1.0000000000 0.0000000000 0.0000000000
2.0000000000 0.0000000000 0.0000000000
-2.0000000000 1.0000000000 0.0000000000
-1.0000000000 1.0000000000 0.0000000000
0.0000000000 1.0000000000 0.0000000000
-2.0000000000 2.0000000000 0.0000000000
-1.0000000000 2.0000000000 0.0000000000
0.0000000000 2.0000000000 0.0000000000
1.0000000000 1.0000000000 0.0000000000
2.0000000000 1.0000000000 0.0000000000
1.0000000000 2.0000000000 0.0000000000
2.0000000000 2.0000000000 0.0000000000

CELLS 4 40
9 0 1 2 3 4 5 6 7 8
9 2 9 10 5 11 12 8 13 14
9 6 7 8 15 16 17 18 19 20
9 8 13 14 17 21 22 20 23 24

CELL_TYPES 4
28
28
28
28

CELL_DATA 4
SCALARS CellID int
LOOKUP_TABLE default
1
1
1
1

SCALARS PinID int
LOOKUP_TABLE default
0
0
0
0
