# vtk DataFile Version 2.0
t1, Created by Gmsh 4.12.2 
ASCII
DATASET UNSTRUCTURED_GRID
POINTS 121 double
0 0 0
1 0 0
1 1 0
0 1 0
0.09999999999981467 0 0
0.1999999999995579 0 0
0.2999999999992664 0 0
0.3999999999989749 0 0
0.4999999999986943 0 0
0.5999999999989468 0 0
0.69999999999921 0 0
0.7999999999994734 0 0
0.8999999999997368 0 0
1 0.8999999999995836 0
1 0.7999999999999998 0
1 0.7000000000006934 0
1 0.6000000000013869 0
1 0.5000000000020587 0
1 0.4000000000016644 0
1 0.3000000000012483 0
1 0.2000000000008322 0
1 0.100000000000416 0
0.8999999999995836 1 0
0.7999999999999998 1 0
0.7000000000006934 1 0
0.6000000000013869 1 0
0.5000000000020587 1 0
0.4000000000016644 1 0
0.3000000000012483 1 0
0.2000000000008322 1 0
0.100000000000416 1 0
0 0.8999999999995836 0
0 0.7999999999999998 0
0 0.7000000000006934 0
0 0.6000000000013869 0
0 0.5000000000020587 0
0 0.4000000000016644 0
0 0.3000000000012483 0
0 0.2000000000008322 0
0 0.100000000000416 0
0.1000000000003559 0.8999999999995838 0
0.2000000000007047 0.8999999999995838 0
0.3000000000010501 0.8999999999995836 0
0.4000000000013955 0.8999999999995836 0
0.5000000000017223 0.8999999999995836 0
0.600000000001143 0.8999999999995836 0
0.7000000000005451 0.8999999999995836 0
0.7999999999999472 0.8999999999995836 0
0.8999999999995988 0.8999999999995836 0
0.1000000000002957 0.7999999999999998 0
0.2000000000005773 0.7999999999999998 0
0.3000000000008519 0.7999999999999998 0
0.4000000000011266 0.7999999999999998 0
0.5000000000013857 0.7999999999999998 0
0.6000000000008987 0.7999999999999998 0
0.7000000000003967 0.7999999999999998 0
0.7999999999998944 0.7999999999999998 0
0.8999999999996143 0.7999999999999998 0
0.1000000000002356 0.7000000000006936 0
0.2000000000004499 0.7000000000006934 0
0.3000000000006538 0.7000000000006934 0
0.4000000000008576 0.7000000000006934 0
0.5000000000010495 0.7000000000006934 0
0.6000000000006549 0.7000000000006934 0
0.7000000000002484 0.7000000000006934 0
0.7999999999998419 0.7000000000006934 0
0.8999999999996294 0.7000000000006934 0
0.1000000000001754 0.6000000000013869 0
0.2000000000003225 0.6000000000013869 0
0.3000000000004555 0.6000000000013866 0
0.4000000000005886 0.6000000000013869 0
0.5000000000007129 0.6000000000013869 0
0.6000000000004109 0.6000000000013869 0
0.7000000000001001 0.6000000000013869 0
0.7999999999997891 0.6000000000013869 0
0.8999999999996451 0.6000000000013869 0
0.1000000000001153 0.5000000000020587 0
0.200000000000195 0.5000000000020587 0
0.3000000000002573 0.5000000000020587 0
0.4000000000003197 0.5000000000020587 0
0.5000000000003765 0.5000000000020587 0
0.6000000000001668 0.5000000000020587 0
0.6999999999999518 0.5000000000020587 0
0.7999999999997367 0.5000000000020587 0
0.8999999999996601 0.5000000000020587 0
0.1000000000000552 0.4000000000016644 0
0.2000000000000676 0.4000000000016644 0
0.3000000000000592 0.4000000000016644 0
0.4000000000000506 0.4000000000016644 0
0.5000000000000401 0.4000000000016644 0
0.5999999999999228 0.4000000000016644 0
0.6999999999998034 0.4000000000016644 0
0.7999999999996839 0.4000000000016644 0
0.8999999999996755 0.4000000000016644 0
0.09999999999999507 0.3000000000012483 0
0.1999999999999402 0.3000000000012483 0
0.299999999999861 0.3000000000012483 0
0.3999999999997818 0.3000000000012483 0
0.4999999999997037 0.3000000000012483 0
0.5999999999996788 0.3000000000012483 0
0.6999999999996551 0.3000000000012483 0
0.7999999999996312 0.3000000000012483 0
0.8999999999996907 0.3000000000012483 0
0.09999999999993492 0.2000000000008322 0
0.1999999999998128 0.2000000000008322 0
0.2999999999996628 0.2000000000008322 0
0.3999999999995127 0.2000000000008322 0
0.4999999999993671 0.2000000000008322 0
0.599999999999435 0.2000000000008322 0
0.6999999999995068 0.2000000000008322 0
0.7999999999995786 0.2000000000008322 0
0.8999999999997063 0.2000000000008322 0
0.0999999999998748 0.100000000000416 0
0.1999999999996853 0.100000000000416 0
0.2999999999994645 0.100000000000416 0
0.3999999999992438 0.100000000000416 0
0.4999999999990307 0.100000000000416 0
0.5999999999991907 0.100000000000416 0
0.6999999999993585 0.100000000000416 0
0.7999999999995262 0.100000000000416 0
0.8999999999997214 0.100000000000416 0

CELLS 100 500
4 3 31 40 30
4 30 40 41 29
4 29 41 42 28
4 28 42 43 27
4 27 43 44 26
4 26 44 45 25
4 25 45 46 24
4 24 46 47 23
4 23 47 48 22
4 22 48 13 2
4 31 32 49 40
4 40 49 50 41
4 41 50 51 42
4 42 51 52 43
4 43 52 53 44
4 44 53 54 45
4 45 54 55 46
4 46 55 56 47
4 47 56 57 48
4 48 57 14 13
4 32 33 58 49
4 49 58 59 50
4 50 59 60 51
4 51 60 61 52
4 52 61 62 53
4 53 62 63 54
4 54 63 64 55
4 55 64 65 56
4 56 65 66 57
4 57 66 15 14
4 33 34 67 58
4 58 67 68 59
4 59 68 69 60
4 60 69 70 61
4 61 70 71 62
4 62 71 72 63
4 63 72 73 64
4 64 73 74 65
4 65 74 75 66
4 66 75 16 15
4 34 35 76 67
4 67 76 77 68
4 68 77 78 69
4 69 78 79 70
4 70 79 80 71
4 71 80 81 72
4 72 81 82 73
4 73 82 83 74
4 74 83 84 75
4 75 84 17 16
4 35 36 85 76
4 76 85 86 77
4 77 86 87 78
4 78 87 88 79
4 79 88 89 80
4 80 89 90 81
4 81 90 91 82
4 82 91 92 83
4 83 92 93 84
4 84 93 18 17
4 36 37 94 85
4 85 94 95 86
4 86 95 96 87
4 87 96 97 88
4 88 97 98 89
4 89 98 99 90
4 90 99 100 91
4 91 100 101 92
4 92 101 102 93
4 93 102 19 18
4 37 38 103 94
4 94 103 104 95
4 95 104 105 96
4 96 105 106 97
4 97 106 107 98
4 98 107 108 99
4 99 108 109 100
4 100 109 110 101
4 101 110 111 102
4 102 111 20 19
4 38 39 112 103
4 103 112 113 104
4 104 113 114 105
4 105 114 115 106
4 106 115 116 107
4 107 116 117 108
4 108 117 118 109
4 109 118 119 110
4 110 119 120 111
4 111 120 21 20
4 39 0 4 112
4 112 4 5 113
4 113 5 6 114
4 114 6 7 115
4 115 7 8 116
4 116 8 9 117
4 117 9 10 118
4 118 10 11 119
4 119 11 12 120
4 120 12 1 21

CELL_TYPES 100
9
9
9
9
9
9
9
9
9
9
9
9
9
9
9
9
9
9
9
9
9
9
9
9
9
9
9
9
9
9
9
9
9
9
9
9
9
9
9
9
9
9
9
9
9
9
9
9
9
9
9
9
9
9
9
9
9
9
9
9
9
9
9
9
9
9
9
9
9
9
9
9
9
9
9
9
9
9
9
9
9
9
9
9
9
9
9
9
9
9
9
9
9
9
9
9
9
9
9
9

CELL_DATA 100
SCALARS CellEntityIds int 1
LOOKUP_TABLE default
1
1
1
1
1
1
1
1
1
1
1
1
1
1
1
1
1
1
1
1
1
1
1
1
1
1
1
1
1
1
1
1
1
1
1
1
1
1
1
1
1
1
1
1
1
1
1
1
1
1
1
1
1
1
1
1
1
1
1
1
1
1
1
1
1
1
1
1
1
1
1
1
1
1
1
1
1
1
1
1
1
1
1
1
1
1
1
1
1
1
1
1
1
1
1
1
1
1
1
1
