# vtk DataFile Version 2.0
square, Created by Gmsh 4.12.2 
ASCII
DATASET UNSTRUCTURED_GRID
POINTS 121 double
-3 -3 0
3 -3 0
3 3 0
-3 3 0
-2.40000000000222 -3 0
-1.800000000004441 -3 0
-1.200000000006661 -3 0
-0.6000000000088797 -3 0
-1.10111919582323e-11 -3 0
0.5999999999911214 -3 0
1.199999999993342 -3 0
1.799999999995561 -3 0
2.39999999999778 -3 0
3 -2.40000000000222 0
3 -1.800000000004441 0
3 -1.200000000006661 0
3 -0.6000000000088797 0
3 -1.10111919582323e-11 0
3 0.5999999999911214 0
3 1.199999999993342 0
3 1.799999999995561 0
3 2.39999999999778 0
2.40000000000222 3 0
1.800000000004441 3 0
1.200000000006661 3 0
0.6000000000088797 3 0
1.10111919582323e-11 3 0
-0.5999999999911214 3 0
-1.199999999993342 3 0
-1.799999999995561 3 0
-2.39999999999778 3 0
-3 2.40000000000222 0
-3 1.800000000004441 0
-3 1.200000000006661 0
-3 0.6000000000088797 0
-3 1.10111919582323e-11 0
-3 -0.5999999999911214 0
-3 -1.199999999993342 0
-3 -1.799999999995561 0
-3 -2.39999999999778 0
2.400000000001777 2.399999999998224 0
2.400000000001332 1.799999999996449 0
2.400000000000889 1.199999999994673 0
2.400000000000444 0.5999999999928971 0
2.4 -8.808953566585842e-12 0
2.399999999999556 -0.6000000000071035 0
2.399999999999112 -1.200000000005329 0
2.399999999998668 -1.800000000003553 0
2.399999999998224 -2.400000000001777 0
1.800000000003553 2.399999999998668 0
1.800000000002665 1.799999999997336 0
1.800000000001777 1.199999999996005 0
1.800000000000889 0.5999999999946728 0
1.800000000000001 -6.606715174939382e-12 0
1.799999999999113 -0.6000000000053282 0
1.799999999998225 -1.200000000003997 0
1.799999999997337 -1.800000000002665 0
1.799999999996448 -2.400000000001333 0
1.200000000005328 2.399999999999112 0
1.200000000003997 1.799999999998224 0
1.200000000002665 1.199999999997337 0
1.200000000001333 0.5999999999964492 0
1.200000000000001 -4.404476783292921e-12 0
1.199999999998669 -0.6000000000035522 0
1.199999999997337 -1.200000000002665 0
1.199999999996005 -1.800000000001777 0
1.199999999994673 -2.400000000000889 0
0.6000000000071037 2.399999999999557 0
0.6000000000053282 1.799999999999113 0
0.6000000000035524 1.199999999998669 0
0.6000000000017764 0.5999999999982246 0
0.6000000000000005 -2.202238391646461e-12 0
0.5999999999982246 -0.6000000000017764 0
0.5999999999964492 -1.200000000001333 0
0.5999999999946731 -1.800000000000889 0
0.5999999999928971 -2.400000000000444 0
8.808953566585842e-12 2.4 0
6.606715174939385e-12 1.800000000000001 0
4.404476783292924e-12 1.200000000000001 0
2.202238391646462e-12 0.6000000000000005 0
0 0 0
-2.202238391646462e-12 -0.6000000000000005 0
-4.404476783292924e-12 -1.200000000000001 0
-6.606715174939385e-12 -1.800000000000001 0
-8.808953566585842e-12 -2.4 0
-0.5999999999928971 2.400000000000445 0
-0.5999999999946731 1.800000000000889 0
-0.5999999999964492 1.200000000001333 0
-0.5999999999982246 0.6000000000017764 0
-0.6000000000000005 2.202238391646461e-12 0
-0.6000000000017764 -0.5999999999982246 0
-0.6000000000035524 -1.199999999998669 0
-0.600000000005328 -1.799999999999113 0
-0.6000000000071035 -2.399999999999556 0
-1.199999999994674 2.400000000000888 0
-1.199999999996006 1.800000000001777 0
-1.199999999997337 1.200000000002665 0
-1.199999999998669 0.6000000000035519 0
-1.200000000000001 4.404476783292921e-12 0
-1.200000000001333 -0.599999999996449 0
-1.200000000002665 -1.199999999997337 0
-1.200000000003997 -1.799999999998224 0
-1.200000000005329 -2.399999999999112 0
-1.799999999996448 2.400000000001332 0
-1.799999999997336 1.800000000002665 0
-1.799999999998225 1.200000000003997 0
-1.799999999999113 0.6000000000053283 0
-1.800000000000001 6.60665966378815e-12 0
-1.800000000000889 -0.5999999999946731 0
-1.800000000001777 -1.199999999996005 0
-1.800000000002665 -1.799999999997336 0
-1.800000000003553 -2.399999999998668 0
-2.399999999998224 2.400000000001777 0
-2.399999999998669 1.800000000003553 0
-2.399999999999112 1.200000000005329 0
-2.399999999999556 0.6000000000071035 0
-2.4 8.809009077737073e-12 0
-2.400000000000444 -0.5999999999928971 0
-2.400000000000889 -1.199999999994673 0
-2.400000000001333 -1.799999999996449 0
-2.400000000001777 -2.399999999998224 0

CELLS 100 500
4 2 22 40 21
4 21 40 41 20
4 20 41 42 19
4 19 42 43 18
4 18 43 44 17
4 17 44 45 16
4 16 45 46 15
4 15 46 47 14
4 14 47 48 13
4 13 48 12 1
4 22 23 49 40
4 40 49 50 41
4 41 50 51 42
4 42 51 52 43
4 43 52 53 44
4 44 53 54 45
4 45 54 55 46
4 46 55 56 47
4 47 56 57 48
4 48 57 11 12
4 23 24 58 49
4 49 58 59 50
4 50 59 60 51
4 51 60 61 52
4 52 61 62 53
4 53 62 63 54
4 54 63 64 55
4 55 64 65 56
4 56 65 66 57
4 57 66 10 11
4 24 25 67 58
4 58 67 68 59
4 59 68 69 60
4 60 69 70 61
4 61 70 71 62
4 62 71 72 63
4 63 72 73 64
4 64 73 74 65
4 65 74 75 66
4 66 75 9 10
4 25 26 76 67
4 67 76 77 68
4 68 77 78 69
4 69 78 79 70
4 70 79 80 71
4 71 80 81 72
4 72 81 82 73
4 73 82 83 74
4 74 83 84 75
4 75 84 8 9
4 26 27 85 76
4 76 85 86 77
4 77 86 87 78
4 78 87 88 79
4 79 88 89 80
4 80 89 90 81
4 81 90 91 82
4 82 91 92 83
4 83 92 93 84
4 84 93 7 8
4 27 28 94 85
4 85 94 95 86
4 86 95 96 87
4 87 96 97 88
4 88 97 98 89
4 89 98 99 90
4 90 99 100 91
4 91 100 101 92
4 92 101 102 93
4 93 102 6 7
4 28 29 103 94
4 94 103 104 95
4 95 104 105 96
4 96 105 106 97
4 97 106 107 98
4 98 107 108 99
4 99 108 109 100
4 100 109 110 101
4 101 110 111 102
4 102 111 5 6
4 29 30 112 103
4 103 112 113 104
4 104 113 114 105
4 105 114 115 106
4 106 115 116 107
4 107 116 117 108
4 108 117 118 109
4 109 118 119 110
4 110 119 120 111
4 111 120 4 5
4 30 3 31 112
4 112 31 32 113
4 113 32 33 114
4 114 33 34 115
4 115 34 35 116
4 116 35 36 117
4 117 36 37 118
4 118 37 38 119
4 119 38 39 120
4 120 39 0 4

CELL_TYPES 100
9
9
9
9
9
9
9
9
9
9
9
9
9
9
9
9
9
9
9
9
9
9
9
9
9
9
9
9
9
9
9
9
9
9
9
9
9
9
9
9
9
9
9
9
9
9
9
9
9
9
9
9
9
9
9
9
9
9
9
9
9
9
9
9
9
9
9
9
9
9
9
9
9
9
9
9
9
9
9
9
9
9
9
9
9
9
9
9
9
9
9
9
9
9
9
9
9
9
9
9

CELL_DATA 100
SCALARS CellEntityIds int 1
LOOKUP_TABLE default
1
1
1
1
1
1
1
1
1
1
1
1
1
1
1
1
1
1
1
1
1
1
1
1
1
1
1
1
1
1
1
1
1
1
1
1
1
1
1
1
1
1
1
1
1
1
1
1
1
1
1
1
1
1
1
1
1
1
1
1
1
1
1
1
1
1
1
1
1
1
1
1
1
1
1
1
1
1
1
1
1
1
1
1
1
1
1
1
1
1
1
1
1
1
1
1
1
1
1
1
