# vtk DataFile Version 2.0
t1, Created by Gmsh 4.12.2 
ASCII
DATASET UNSTRUCTURED_GRID
POINTS 13 double
0 0 0
1 0 0
1 1 0
0 1 0
0.4999999999986718 0 0
1 0.5000000000013305 0
0.5000000000013305 1 0
0 0.5000000000013305 0
0.5 0.5 0
0.75 0.25 0
0.25 0.25 0
0.25 0.75 0
0.75 0.75 0

CELLS 16 64
3 0 4 10
3 4 9 10
3 4 1 9
3 10 9 8
3 3 7 11
3 7 10 11
3 7 0 10
3 11 10 8
3 1 5 9
3 5 12 9
3 5 2 12
3 9 12 8
3 2 6 12
3 6 11 12
3 6 3 11
3 12 11 8

CELL_TYPES 16
5
5
5
5
5
5
5
5
5
5
5
5
5
5
5
5

CELL_DATA 16
SCALARS CellEntityIds int 1
LOOKUP_TABLE default
1
1
1
1
1
1
1
1
1
1
1
1
1
1
1
1
