# vtk DataFile Version 2.0
t1, Created by Gmsh 4.12.2 
ASCII
DATASET UNSTRUCTURED_GRID
POINTS 37 double
0 0 0
1 0 0
1 1 0
0 1 0
0.2499999999994194 0 0
0.499999999998694 0 0
0.749999999999347 0 0
1 0.7500000000009891 0
1 0.5000000000020591 0
1 0.2500000000010296 0
0.7500000000009891 1 0
0.5000000000020591 1 0
0.2500000000010296 1 0
0 0.7500000000009891 0
0 0.5000000000020591 0
0 0.2500000000010296 0
0.7062499999993543 0.2937500000008058 0
0.3749999999991588 0.3750000000000001 0
0.6437500000002944 0.6479166666672455 0
0.2812500000011936 0.7187500000006082 0
0.5718750000011767 0.8239583333336227 0
0.8218750000001471 0.8239583333336227 0
0.1874999999995794 0.1875000000000001 0
0.1874999999995794 0.4375000000010296 0
0.4374999999989264 0.1875000000000001 0
0.8218750000001471 0.5739583333346523 0
0.1406250000005968 0.8593750000003041 0
0.3906250000016264 0.8593750000003041 0
0.1406250000005968 0.6093750000013336 0
0.8531249999996772 0.3968750000014324 0
0.8531249999996772 0.1468750000004029 0
0.6031249999990241 0.1468750000004029 0
0.462500000000744 0.6833333333339269 0
0.5406249999992566 0.3343750000004029 0
0.6749999999998244 0.4708333333340256 0
0.5093749999997266 0.5114583333336228 0
0.3281250000001762 0.5468750000003042 0

CELLS 56 224
3 2 10 21
3 10 20 21
3 10 11 20
3 21 20 18
3 14 15 23
3 15 22 23
3 15 0 22
3 23 22 17
3 0 4 22
3 4 24 22
3 4 5 24
3 22 24 17
3 8 7 25
3 7 21 25
3 7 2 21
3 25 21 18
3 11 12 27
3 12 26 27
3 12 3 26
3 27 26 19
3 3 13 26
3 13 28 26
3 13 14 28
3 26 28 19
3 1 9 30
3 9 29 30
3 9 8 29
3 30 29 16
3 5 6 31
3 6 30 31
3 6 1 30
3 31 30 16
3 18 20 32
3 20 27 32
3 20 11 27
3 32 27 19
3 5 31 24
3 31 33 24
3 31 16 33
3 24 33 17
3 17 33 35
3 33 34 35
3 33 16 34
3 35 34 18
3 14 23 28
3 23 36 28
3 23 17 36
3 28 36 19
3 17 35 36
3 35 32 36
3 35 18 32
3 36 32 19
3 16 29 34
3 29 25 34
3 29 8 25
3 34 25 18

CELL_TYPES 56
5
5
5
5
5
5
5
5
5
5
5
5
5
5
5
5
5
5
5
5
5
5
5
5
5
5
5
5
5
5
5
5
5
5
5
5
5
5
5
5
5
5
5
5
5
5
5
5
5
5
5
5
5
5
5
5

CELL_DATA 56
SCALARS CellEntityIds int 1
LOOKUP_TABLE default
1
1
1
1
1
1
1
1
1
1
1
1
1
1
1
1
1
1
1
1
1
1
1
1
1
1
1
1
1
1
1
1
1
1
1
1
1
1
1
1
1
1
1
1
1
1
1
1
1
1
1
1
1
1
1
1
