# vtk DataFile Version 2.0
t1, Created by Gmsh 4.12.2 
ASCII
DATASET UNSTRUCTURED_GRID
POINTS 12 double
0 0 0
1 0 0
1 1 0
0 1 0
0.499999999998694 0 0
1 0.5000000000020591 0
0.5000000000020591 1 0
0 0.5000000000020591 0
0.7062499999993543 0.2937500000008058 0
0.3749999999991588 0.3750000000000001 0
0.6437500000002944 0.6479166666672455 0
0.2812500000011936 0.7187500000006082 0

CELLS 14 56
3 2 6 10
3 7 0 9
3 0 4 9
3 5 2 10
3 6 3 11
3 3 7 11
3 1 5 8
3 4 1 8
3 10 6 11
3 4 8 9
3 9 8 10
3 7 9 11
3 9 10 11
3 8 5 10

CELL_TYPES 14
5
5
5
5
5
5
5
5
5
5
5
5
5
5

CELL_DATA 14
SCALARS CellEntityIds int 1
LOOKUP_TABLE default
1
1
1
1
1
1
1
1
1
1
1
1
1
1
