# vtk DataFile Version 2.0
outputfile
ASCII
DATASET UNSTRUCTURED_GRID
POINTS 15 double
   0.0000000000000000        0.0000000000000000        0.0000000000000000     
   1.0000000000000000        0.0000000000000000        0.0000000000000000     
   1.0000000000000000        1.0000000000000000        0.0000000000000000     
   0.0000000000000000        1.0000000000000000        0.0000000000000000     
  0.50000000000000000        0.0000000000000000        0.0000000000000000     
  0.50000000000000000        1.0000000000000000        0.0000000000000000     
  0.25000000000000000        0.0000000000000000        0.0000000000000000     
  0.55000000000000004       0.50000000000000000        0.0000000000000000     
  0.25000000000000000        1.0000000000000000        0.0000000000000000     
   0.0000000000000000       0.50000000000000000        0.0000000000000000     
  0.75000000000000000        0.0000000000000000        0.0000000000000000     
   1.0000000000000000       0.50000000000000000        0.0000000000000000     
  0.75000000000000000        1.0000000000000000        0.0000000000000000     
  0.25000000000000000       0.50000000000000000        0.0000000000000000     
  0.75000000000000000       0.50000000000000000        0.0000000000000000     

CELLS 2 20
9 0 4 5 3 6 7 8 9 13
9 4 1 2 5 10 11 12 7 14

CELL_TYPES 2
28
28

CELL_DATA 2

SCALARS blocks int 1
LOOKUP_TABLE default
0
1

SCALARS material int 1
LOOKUP_TABLE default
1
1

POINT_DATA 15
SCALARS scalar_flux_1 double 1
LOOKUP_TABLE default
2.34682453799885E-01
2.31049571559660E-01
2.31049571570437E-01
2.34682453800865E-01
4.22633866934871E-01
4.22633866944404E-01
3.71772644369237E-01
7.59967127351255E-01
3.71772644371794E-01
4.19996170309468E-01
3.72414249812161E-01
4.20382500091622E-01
3.72414249834071E-01
6.71147975235065E-01
6.70583633018826E-01
