# vtk DataFile Version 2.0
outputfile
ASCII
DATASET UNSTRUCTURED_GRID
POINTS 16 double
   0.0000000000000000        1.0000000000000000        0.0000000000000000     
   0.0000000000000000       0.50000000000205913        0.0000000000000000     
  0.50000000000037659       0.50000000000205913        0.0000000000000000     
  0.50000000000205913        1.0000000000000000        0.0000000000000000     
  0.50000000000205913        1.0000000000000000        0.0000000000000000     
  0.50000000000037659       0.50000000000205913        0.0000000000000000     
   1.0000000000000000       0.50000000000205913        0.0000000000000000     
   1.0000000000000000        1.0000000000000000        0.0000000000000000     
   0.0000000000000000       0.50000000000205913        0.0000000000000000     
   0.0000000000000000        0.0000000000000000        0.0000000000000000     
  0.49999999999869399        0.0000000000000000        0.0000000000000000     
  0.50000000000037659       0.50000000000205913        0.0000000000000000     
  0.50000000000037659       0.50000000000205913        0.0000000000000000     
  0.49999999999869399        0.0000000000000000        0.0000000000000000     
   1.0000000000000000        0.0000000000000000        0.0000000000000000     
   1.0000000000000000       0.50000000000205913        0.0000000000000000     

CELLS 4 20
4 0 1 2 3
4 4 5 6 7
4 8 9 10 11
4 12 13 14 15

CELL_TYPES 4
 9
 9
 9
 9

CELL_DATA 4

SCALARS blocks int 1
LOOKUP_TABLE default
0
1
2
3

SCALARS material int 1
LOOKUP_TABLE default
1
1
1
1

POINT_DATA 16
SCALARS angular_flux1 double 1
LOOKUP_TABLE default
  -1.8688256845837581E-002
   3.1140827604395103E-002
  0.93380006185805520     
  0.56467740871288097     
  0.70808622473892968     
   1.1257759880758258     
  0.70808622473783189     
  0.65847823929224358     
   5.1766821491583966E-002
   4.7093959573433229E-002
   5.1766821492323291E-002
  0.79337880805594596     
  0.93380006185899378     
   3.1140827605012782E-002
  -1.8688256845805776E-002
  0.56467740871255279     

SCALARS angular_flux2 double 1
LOOKUP_TABLE default
  0.65847823929178828     
  0.70808622473867322     
   1.1257759880747888     
  0.70808622473629435     
  0.56467740870944505     
  0.93380006185636355     
   3.1140827604434176E-002
  -1.8688256846147843E-002
  0.56467740871296057     
  -1.8688256845679842E-002
   3.1140827605401843E-002
  0.93380006185821607     
  0.79337880805496364     
   5.1766821492558672E-002
   4.7093959573562230E-002
   5.1766821491819097E-002

SCALARS angular_flux3 double 1
LOOKUP_TABLE default
   4.7093959573468153E-002
   5.1766821492380564E-002
  0.79337880805266103     
   5.1766821491370844E-002
   3.1140827604066661E-002
  0.93380006185464348     
  0.56467740870950700     
  -1.8688256846104267E-002
   3.1140827604974747E-002
  -1.8688256845981143E-002
  0.56467740870976213     
  0.93380006185609266     
   1.1257759880736613     
  0.70808622473611049     
  0.65847823929136373     
  0.70808622473697413     

SCALARS angular_flux4 double 1
LOOKUP_TABLE default
  -1.8688256846196197E-002
  0.56467740870898042     
  0.93380006185507169     
   3.1140827603789056E-002
   5.1766821491265443E-002
  0.79337880805261252     
   5.1766821491734567E-002
   4.7093959573297005E-002
  0.70808622473594640     
  0.65847823929162907     
  0.70808622473808946     
   1.1257759880741949     
  0.93380006185641373     
  0.56467740871191274     
  -1.8688256845819994E-002
   3.1140827604466896E-002

SCALARS scalar_flux_1 double 1
LOOKUP_TABLE default
1.67048921293306E-01
3.38917820636107E-01
9.46688729960144E-01
3.38917820636084E-01
3.38917820635927E-01
9.46688729959861E-01
3.38917820635877E-01
1.67048921293322E-01
3.38917820636366E-01
1.67048921293350E-01
3.38917820636394E-01
9.46688729961112E-01
9.46688729961008E-01
3.38917820636399E-01
1.67048921293325E-01
3.38917820636453E-01
