# vtk DataFile Version 2.0
outputfile
ASCII
DATASET UNSTRUCTURED_GRID
POINTS 41 double
 -0.39868893399999999      -0.39868893399999999        0.0000000000000000     
   0.0000000000000000      -0.39868893399999999        0.0000000000000000     
  0.39868893399999999      -0.39868893399999999        0.0000000000000000     
 -0.39868893399999999        0.0000000000000000        0.0000000000000000     
   0.0000000000000000        0.0000000000000000        0.0000000000000000     
  0.39868893399999999        0.0000000000000000        0.0000000000000000     
 -0.39868893399999999       0.39868893399999999        0.0000000000000000     
   0.0000000000000000       0.39868893399999999        0.0000000000000000     
  0.39868893399999999       0.39868893399999999        0.0000000000000000     
 -0.55499973810000003       0.55499973810000003        0.0000000000000000     
   0.0000000000000000       0.70231697479999999        0.0000000000000000     
  0.55499973810000003       0.55499973810000003        0.0000000000000000     
 -0.71131054210000000       0.71131054210000000        0.0000000000000000     
   0.0000000000000000        1.0059450156000000        0.0000000000000000     
  0.71131054210000000       0.71131054210000000        0.0000000000000000     
 -0.55499973810000003      -0.55499973810000003        0.0000000000000000     
 -0.70231697479999999        0.0000000000000000        0.0000000000000000     
 -0.71131054210000000      -0.71131054210000000        0.0000000000000000     
  -1.0059450156000000        0.0000000000000000        0.0000000000000000     
  0.70231697479999999        0.0000000000000000        0.0000000000000000     
  0.55499973810000003      -0.55499973810000003        0.0000000000000000     
   1.0059450156000000        0.0000000000000000        0.0000000000000000     
  0.71131054210000000      -0.71131054210000000        0.0000000000000000     
   0.0000000000000000      -0.70231697479999999        0.0000000000000000     
   0.0000000000000000       -1.0059450156000000        0.0000000000000000     
  -1.3556552710000001        1.3556552710000001        0.0000000000000000     
   0.0000000000000000        1.5029725078000000        0.0000000000000000     
   1.3556552710000001        1.3556552710000001        0.0000000000000000     
  -2.0000000000000000        2.0000000000000000        0.0000000000000000     
   0.0000000000000000        2.0000000000000000        0.0000000000000000     
   2.0000000000000000        2.0000000000000000        0.0000000000000000     
  -1.3556552710000001       -1.3556552710000001        0.0000000000000000     
  -1.5029725078000000        0.0000000000000000        0.0000000000000000     
  -2.0000000000000000       -2.0000000000000000        0.0000000000000000     
  -2.0000000000000000        0.0000000000000000        0.0000000000000000     
   1.5029725078000000        0.0000000000000000        0.0000000000000000     
   1.3556552710000001       -1.3556552710000001        0.0000000000000000     
   2.0000000000000000        0.0000000000000000        0.0000000000000000     
   2.0000000000000000       -2.0000000000000000        0.0000000000000000     
   0.0000000000000000       -1.5029725078000000        0.0000000000000000     
   0.0000000000000000       -2.0000000000000000        0.0000000000000000     

CELLS 9 90
9 6 0 2 8 3 1 5 7 4
9 12 6 8 14 9 7 11 13 10
9 17 0 6 12 15 3 9 18 16
9 14 8 2 22 11 5 20 21 19
9 22 2 0 17 20 1 15 24 23
9 28 12 14 30 25 13 27 29 26
9 33 17 12 28 31 18 25 34 32
9 30 14 22 38 27 21 36 37 35
9 38 22 17 33 36 24 31 40 39

CELL_TYPES 9
28
28
28
28
28
28
28
28
28

CELL_DATA 9

SCALARS blocks int 1
LOOKUP_TABLE default
0
1
2
3
4
5
6
7
8

SCALARS material int 1
LOOKUP_TABLE default
2
2
2
2
2
1
1
1
1

POINT_DATA 41
SCALARS scalar_flux_1 double 1
LOOKUP_TABLE default
6.05451783580364E-02
6.15796575536188E-02
6.20981455067479E-02
6.05453673905621E-02
6.15600645397585E-02
6.20691862111555E-02
6.05451782971828E-02
6.15796574117889E-02
6.20981454119637E-02
5.99162165102752E-02
6.16334510148211E-02
6.22219316567478E-02
5.91070076977138E-02
6.17511700241308E-02
6.23009641720518E-02
5.99162165547747E-02
5.91954051697709E-02
5.91070077377140E-02
5.69394235703644E-02
6.22793263853437E-02
6.22219317303354E-02
6.24171175784984E-02
6.23009642488726E-02
6.16334511575624E-02
6.17511700663877E-02
5.25587830136118E-02
6.22269028389897E-02
6.22651317976692E-02
3.74513677209425E-02
6.29361578625513E-02
5.89605557912006E-02
5.25587830280492E-02
5.03153044040013E-02
3.74513677600922E-02
3.24648060095286E-02
6.25924168453839E-02
6.22651318791607E-02
6.30251980560133E-02
5.89605559854809E-02
6.22269028878171E-02
6.29361578325641E-02
