# vtk DataFile Version 2.0
outputfile
ASCII
DATASET UNSTRUCTURED_GRID
POINTS 505 double
   0.0000000000000000        0.0000000000000000        0.0000000000000000     
   1.0000000000000000        0.0000000000000000        0.0000000000000000     
   1.0000000000000000        1.0000000000000000        0.0000000000000000     
   0.0000000000000000        1.0000000000000000        0.0000000000000000     
   4.9999999999899652E-002   0.0000000000000000        0.0000000000000000     
   9.9999999999814668E-002   0.0000000000000000        0.0000000000000000     
  0.14999999999970359        0.0000000000000000        0.0000000000000000     
  0.19999999999955789        0.0000000000000000        0.0000000000000000     
  0.24999999999941211        0.0000000000000000        0.0000000000000000     
  0.29999999999926641        0.0000000000000000        0.0000000000000000     
  0.34999999999912063        0.0000000000000000        0.0000000000000000     
  0.39999999999897490        0.0000000000000000        0.0000000000000000     
  0.44999999999882923        0.0000000000000000        0.0000000000000000     
  0.49999999999869432        0.0000000000000000        0.0000000000000000     
  0.54999999999881510        0.0000000000000000        0.0000000000000000     
  0.59999999999894682        0.0000000000000000        0.0000000000000000     
  0.64999999999907843        0.0000000000000000        0.0000000000000000     
  0.69999999999921003        0.0000000000000000        0.0000000000000000     
  0.74999999999934175        0.0000000000000000        0.0000000000000000     
  0.79999999999947335        0.0000000000000000        0.0000000000000000     
  0.84999999999960507        0.0000000000000000        0.0000000000000000     
  0.89999999999973679        0.0000000000000000        0.0000000000000000     
  0.94999999999986839        0.0000000000000000        0.0000000000000000     
   1.0000000000000000       0.94999999999979179        0.0000000000000000     
   1.0000000000000000       0.89999999999958358        0.0000000000000000     
   1.0000000000000000       0.84999999999965292        0.0000000000000000     
   1.0000000000000000       0.79999999999999982        0.0000000000000000     
   1.0000000000000000       0.75000000000034661        0.0000000000000000     
   1.0000000000000000       0.70000000000069340        0.0000000000000000     
   1.0000000000000000       0.65000000000104008        0.0000000000000000     
   1.0000000000000000       0.60000000000138687        0.0000000000000000     
   1.0000000000000000       0.55000000000173355        0.0000000000000000     
   1.0000000000000000       0.50000000000205869        0.0000000000000000     
   1.0000000000000000       0.45000000000187229        0.0000000000000000     
   1.0000000000000000       0.40000000000166441        0.0000000000000000     
   1.0000000000000000       0.35000000000145642        0.0000000000000000     
   1.0000000000000000       0.30000000000124832        0.0000000000000000     
   1.0000000000000000       0.25000000000104028        0.0000000000000000     
   1.0000000000000000       0.20000000000083221        0.0000000000000000     
   1.0000000000000000       0.15000000000062411        0.0000000000000000     
   1.0000000000000000       0.10000000000041601        0.0000000000000000     
   1.0000000000000000        5.0000000000207989E-002   0.0000000000000000     
  0.94999999999979179        1.0000000000000000        0.0000000000000000     
  0.89999999999958358        1.0000000000000000        0.0000000000000000     
  0.84999999999965292        1.0000000000000000        0.0000000000000000     
  0.79999999999999982        1.0000000000000000        0.0000000000000000     
  0.75000000000034661        1.0000000000000000        0.0000000000000000     
  0.70000000000069340        1.0000000000000000        0.0000000000000000     
  0.65000000000104008        1.0000000000000000        0.0000000000000000     
  0.60000000000138687        1.0000000000000000        0.0000000000000000     
  0.55000000000173355        1.0000000000000000        0.0000000000000000     
  0.50000000000205869        1.0000000000000000        0.0000000000000000     
  0.45000000000187229        1.0000000000000000        0.0000000000000000     
  0.40000000000166441        1.0000000000000000        0.0000000000000000     
  0.35000000000145642        1.0000000000000000        0.0000000000000000     
  0.30000000000124832        1.0000000000000000        0.0000000000000000     
  0.25000000000104028        1.0000000000000000        0.0000000000000000     
  0.20000000000083221        1.0000000000000000        0.0000000000000000     
  0.15000000000062411        1.0000000000000000        0.0000000000000000     
  0.10000000000041601        1.0000000000000000        0.0000000000000000     
   5.0000000000207989E-002   1.0000000000000000        0.0000000000000000     
   0.0000000000000000       0.94999999999979179        0.0000000000000000     
   0.0000000000000000       0.89999999999958358        0.0000000000000000     
   0.0000000000000000       0.84999999999965292        0.0000000000000000     
   0.0000000000000000       0.79999999999999982        0.0000000000000000     
   0.0000000000000000       0.75000000000034661        0.0000000000000000     
   0.0000000000000000       0.70000000000069340        0.0000000000000000     
   0.0000000000000000       0.65000000000104008        0.0000000000000000     
   0.0000000000000000       0.60000000000138687        0.0000000000000000     
   0.0000000000000000       0.55000000000173355        0.0000000000000000     
   0.0000000000000000       0.50000000000205869        0.0000000000000000     
   0.0000000000000000       0.45000000000187229        0.0000000000000000     
   0.0000000000000000       0.40000000000166441        0.0000000000000000     
   0.0000000000000000       0.35000000000145642        0.0000000000000000     
   0.0000000000000000       0.30000000000124832        0.0000000000000000     
   0.0000000000000000       0.25000000000104028        0.0000000000000000     
   0.0000000000000000       0.20000000000083221        0.0000000000000000     
   0.0000000000000000       0.15000000000062411        0.0000000000000000     
   0.0000000000000000       0.10000000000041601        0.0000000000000000     
   0.0000000000000000        5.0000000000207989E-002   0.0000000000000000     
  0.46314821656525579       0.95514899321372082        0.0000000000000000     
  0.95669472764970509       0.49443613635555428        0.0000000000000000     
   4.1738696614889138E-002  0.49622487473382298        0.0000000000000000     
  0.54920971604198476        4.4950339730122808E-002   0.0000000000000000     
  0.95889936649149554       0.69184950794362821        0.0000000000000000     
   5.6861288618538841E-002  0.65900873715181929        0.0000000000000000     
  0.33332087986118542        4.6016368748656888E-002   0.0000000000000000     
  0.65647019732163092       0.95389335645739159        0.0000000000000000     
  0.95654146838055898       0.29513435574510472        0.0000000000000000     
  0.31945108858884103       0.95517766022397010        0.0000000000000000     
   4.7413631872400698E-002  0.35076092107080797        0.0000000000000000     
  0.69884711980629155        4.5675398263482797E-002   0.0000000000000000     
  0.95841918113864466       0.80414829075456207        0.0000000000000000     
   4.5502662142809312E-002  0.81236207604135757        0.0000000000000000     
   4.0047346579859158E-002  0.17537438831828711        0.0000000000000000     
  0.83121004133248200        5.7869642935671838E-002   0.0000000000000000     
  0.81197320460865996       0.95138902290985849        0.0000000000000000     
  0.17237799469023410       0.95839828930153692        0.0000000000000000     
  0.18856030550540789        4.4080461895546597E-002   0.0000000000000000     
  0.95664155725027744       0.39490126831429212        0.0000000000000000     
  0.95599298886726092       0.19468028930078371        0.0000000000000000     
  0.43070456290092868        4.8960292873736613E-002   0.0000000000000000     
  0.95686315312463521       0.59416162347434842        0.0000000000000000     
  0.55817969127170897       0.95488330965780877        0.0000000000000000     
   4.0231631595507911E-002  0.57249019934004908        0.0000000000000000     
  0.95532792076162631       0.90239373875381634        0.0000000000000000     
   4.5509232118940632E-002  0.90842833645186383        0.0000000000000000     
   4.4159543747626637E-002   9.5347801344847563E-002   0.0000000000000000     
  0.95562669714357296        9.5063775978714404E-002   0.0000000000000000     
  0.95667039825492062       0.44486490482384061        0.0000000000000000     
  0.91327692772692304       0.44110576016520531        0.0000000000000000     
  0.91336332694246825       0.49093288487171860        0.0000000000000000     
  0.87002138712830401       0.48898812111076118        0.0000000000000000     
  0.87011065570671886       0.53874276980420832        0.0000000000000000     
  0.82669626373124794       0.48778294295447350        0.0000000000000000     
  0.82679051859409824       0.53766164560132312        0.0000000000000000     
  0.78347973782924507       0.53517994516123324        0.0000000000000000     
  0.78345635079588516       0.48503598183156299        0.0000000000000000     
  0.74033505129784960       0.47848626725353133        0.0000000000000000     
  0.74062309732149423       0.42891748737032881        0.0000000000000000     
  0.69715229030496406       0.46617916876982912        0.0000000000000000     
  0.69636076216365461       0.51608252074514616        0.0000000000000000     
  0.65157546415733147       0.50044659733728603        0.0000000000000000     
  0.65358619107106353       0.45068722973306408        0.0000000000000000     
  0.60737146179453183       0.48534440986149191        0.0000000000000000     
[...]
CELL_DATA 464

SCALARS blocks int 1
LOOKUP_TABLE default
0
1
2
3
4
5
6
7
8
9
10
11
12
13
14
15
16
17
18
19
20
21
22
23
24
25
26
27
28
29
30
31
32
33
34
35
36
37
38
39
40
41
42
43
44
45
46
47
48
49
50
51
52
53
54
55
56
57
58
59
60
61
62
63
64
65
66
67
68
69
70
71
72
73
74
75
76
77
78
79
80
81
82
83
84
85
86
87
88
89
90
91
92
93
94
95
96
97
98
99
100
101
102
103
104
105
106
107
108
109
110
111
112
113
114
115
116
117
118
119
120
121
122
123
124
125
126
127
128
129
130
131
132
133
134
135
136
137
138
139
140
141
142
143
144
145
146
147
148
149
150
151
152
153
154
155
156
157
158
159
160
161
162
163
164
165
166
167
168
169
170
171
172
173
174
175
176
177
178
179
180
181
182
183
184
185
186
187
188
189
190
191
192
193
194
195
196
197
198
199
200
201
202
203
204
205
206
207
208
209
210
211
212
213
214
215
216
217
218
219
220
221
222
223
224
225
226
227
228
229
230
231
232
233
234
235
236
237
238
239
240
241
242
243
244
245
246
247
248
249
250
251
252
253
254
255
256
257
258
259
260
261
262
263
264
265
266
267
268
269
270
271
272
273
274
275
276
277
278
279
280
281
282
283
284
285
286
287
288
289
290
291
292
293
294
295
296
297
298
299
300
301
302
303
304
305
306
307
308
309
310
311
312
313
314
315
316
317
318
319
320
321
322
323
324
325
326
327
328
329
330
331
332
333
334
335
336
337
338
339
340
341
342
343
344
345
346
347
348
349
350
351
352
353
354
355
356
357
358
359
360
361
362
363
364
365
366
367
368
369
370
371
372
373
374
375
376
377
378
379
380
381
382
383
384
385
386
387
388
389
390
391
392
393
394
395
396
397
398
399
400
401
402
403
404
405
406
407
408
409
410
411
412
413
414
415
416
417
418
419
420
421
422
423
424
425
426
427
428
429
430
431
432
433
434
435
436
437
438
439
440
441
442
443
444
445
446
447
448
449
450
451
452
453
454
455
456
457
458
459
460
461
462
463

SCALARS material int 1
LOOKUP_TABLE default
1
1
1
1
1
1
1
1
1
1
1
1
1
1
1
1
1
1
1
1
1
1
1
1
1
1
1
1
1
1
1
1
1
1
1
1
1
1
1
1
1
1
1
1
1
1
1
1
1
1
1
1
1
1
1
1
1
1
1
1
1
1
1
1
1
1
1
1
1
1
1
1
1
1
1
1
1
1
1
1
1
1
1
1
1
1
1
1
1
1
1
1
1
1
1
1
1
1
1
1
1
1
1
1
1
1
1
1
1
1
1
1
1
1
1
1
1
1
1
1
1
1
1
1
1
1
1
1
1
1
1
1
1
1
1
1
1
1
1
1
1
1
1
1
1
1
1
1
1
1
1
1
1
1
1
1
1
1
1
1
1
1
1
1
1
1
1
1
1
1
1
1
1
1
1
1
1
1
1
1
1
1
1
1
1
1
1
1
1
1
1
1
1
1
1
1
1
1
1
1
1
1
1
1
1
1
1
1
1
1
1
1
1
1
1
1
1
1
1
1
1
1
1
1
1
1
1
1
1
1
1
1
1
1
1
1
1
1
1
1
1
1
1
1
1
1
1
1
1
1
1
1
1
1
1
1
1
1
1
1
1
1
1
1
1
1
1
1
1
1
1
1
1
1
1
1
1
1
1
1
1
1
1
1
1
1
1
1
1
1
1
1
1
1
1
1
1
1
1
1
1
1
1
1
1
1
1
1
1
1
1
1
1
1
1
1
1
1
1
1
1
1
1
1
1
1
1
1
1
1
1
1
1
1
1
1
1
1
1
1
1
1
1
1
1
1
1
1
1
1
1
1
1
1
1
1
1
1
1
1
1
1
1
1
1
1
1
1
1
1
1
1
1
1
1
1
1
1
1
1
1
1
1
1
1
1
1
1
1
1
1
1
1
1
1
1
1
1
1
1
1
1
1
1
1
1
1
1
1
1
1
1
1
1
1
1
1
1
1
1
1
1
1
1
1
1
1
1
1
1
1
1
1
1
1
1
1
1
1
1
1
1
1
1
1
1
1
1
1
1
1
1
1
1
1
1
1
1
1
1
1
1
1
1

POINT_DATA 505
SCALARS scalar_flux_1 double 1
LOOKUP_TABLE default
2.43438965764464E-01
2.43426399764682E-01
2.43466039029613E-01
2.43437957682350E-01
2.60967030718892E-01
2.76943272544783E-01
2.91267776355400E-01
3.03859936710340E-01
3.14644982438541E-01
3.23558091430002E-01
3.30550802741528E-01
3.35587825378854E-01
3.38657865469407E-01
3.39679296500342E-01
3.38675698800046E-01
3.35606950707097E-01
3.30576463864914E-01
3.23581616031697E-01
3.14666735082797E-01
3.03870098182212E-01
2.91457032173769E-01
2.76858534960930E-01
2.60945686755367E-01
2.60988434402672E-01
2.76955171243440E-01
2.91263302877805E-01
3.03802382440780E-01
3.14800373838641E-01
3.23532023493275E-01
3.30524468327489E-01
3.35539785021511E-01
3.38565915651894E-01
3.39575826179650E-01
3.38567915171558E-01
3.35545240813866E-01
3.30527540407005E-01
3.23544059111322E-01
3.14636446292938E-01
3.03857239316205E-01
2.91269010340674E-01
2.76942675420446E-01
2.60959143898385E-01
2.60994922658650E-01
2.76972511907253E-01
2.91302391704026E-01
3.03907682230286E-01
3.14719142143306E-01
3.23568427111748E-01
3.30585110851047E-01
3.35556227183037E-01
3.38571094715709E-01
3.39581047419084E-01
3.38568959557753E-01
3.35549534934125E-01
3.30539959345809E-01
3.23560072237132E-01
3.14660158182213E-01
3.03903400299638E-01
2.91487820799302E-01
2.76893016734356E-01
2.60964737663486E-01
2.60969263012524E-01
2.76943203433096E-01
2.91259011748433E-01
3.03838466584032E-01
3.14617263025914E-01
3.23560255505314E-01
3.30530708432365E-01
3.35510597816019E-01
3.38722742016578E-01
3.39522068349456E-01
3.38548606522643E-01
3.35536356014257E-01
3.30531078144272E-01
3.23555119799359E-01
3.14636789943074E-01
3.04025376176884E-01
2.91193469794395E-01
2.76927165629278E-01
2.60961994129094E-01
3.61004805252276E-01
3.60846713939308E-01
3.60074801941029E-01
3.60673940895340E-01
3.44157326780682E-01
3.56319923971042E-01
3.50261535582934E-01
3.51696197299879E-01
3.43060325976875E-01
3.47650741653421E-01
3.53234653419402E-01
3.45133266112269E-01
3.21124959484380E-01
3.20677218013020E-01
3.15037609409782E-01
3.20636104036560E-01
3.22139819294258E-01
3.14906162112963E-01
3.20339377493742E-01
3.56154279577840E-01
3.21867311949840E-01
3.61506585788963E-01
3.56976882430529E-01
3.60261224699712E-01
3.56964461485449E-01
2.94074856239101E-01
2.92412344056825E-01
2.93115789737053E-01
2.93116305176706E-01
3.59567993468409E-01
3.79014277845889E-01
3.80507941440749E-01
3.98475616427960E-01
3.97786677120948E-01
4.14658467734527E-01
4.14001231711941E-01
4.28415808105515E-01
4.28935557496093E-01
4.41181829667705E-01
4.38680231313832E-01
4.51252289591848E-01
4.51912068380337E-01
4.60735711448605E-01
4.59047709093520E-01
4.66999738707146E-01
4.67710385273944E-01
4.70932354845093E-01
4.70787230428916E-01
4.72998427332280E-01
4.72381980561361E-01
4.73502443882814E-01
4.72153950742196E-01
4.71778935919074E-01
4.71607258492025E-01
4.69825506345311E-01
4.66572016035855E-01
4.64812218623122E-01
4.65440046809099E-01
4.58945477280127E-01
4.56926799757298E-01
4.48656236058846E-01
4.46479438614388E-01
4.42483695486277E-01
4.59437798428747E-01
4.49411197982629E-01
4.48159064219564E-01
4.35069163965140E-01
4.30967372783232E-01
4.29430253294910E-01
4.36559224982853E-01
4.67369630308735E-01
4.61045415112520E-01
4.60119882304161E-01
4.52710858018605E-01
4.51766132614496E-01
4.41414649245986E-01
4.42354663631632E-01
4.47759079762802E-01
4.37232526271940E-01
4.40552599512821E-01
4.29372255596752E-01
4.30400082418421E-01
4.15642751653270E-01
4.18154960689891E-01
4.28073184395369E-01
4.25402650464090E-01
4.26981286953816E-01
4.34093035380412E-01
4.23110343766605E-01
4.29665363488208E-01
4.18235505596298E-01
4.23104432420524E-01
4.33818999642548E-01
4.26147589563572E-01
4.37465781049680E-01
4.26785779033962E-01
4.37751302271810E-01
4.10207422160687E-01
4.05446860291568E-01
4.24826661689213E-01
3.99963212178346E-01
4.23879498616602E-01
4.43397768145095E-01
4.12996145887121E-01
4.23418198193911E-01
4.36272156179690E-01
4.23732559202139E-01
4.16048835525639E-01
4.36552893087138E-01
4.26262192855238E-01
4.12967504003321E-01
4.14345496623555E-01
4.28587758120623E-01
4.18381574883021E-01
4.06079655362162E-01
3.93680445725048E-01
4.05406025221922E-01
4.29939334270401E-01
4.00954337575571E-01
3.87815581877367E-01
4.13851626277066E-01
4.34469906417770E-01
4.46549888354952E-01
3.92609855221982E-01
3.79743158991593E-01
4.29842960347497E-01
4.18304617134891E-01
4.19065022721897E-01
4.10955823449889E-01
4.54912124116959E-01
4.27892652606085E-01
3.90012004908761E-01
3.96531489118198E-01
4.15315118999842E-01
3.80664316943186E-01
3.93123484843979E-01
3.92305777889955E-01
3.91397856298905E-01
3.67339686865074E-01
3.71539867907897E-01
3.97263230445789E-01
3.73535989566895E-01
3.86836483392362E-01
4.25057309139331E-01
4.59094461066449E-01
4.58069214766625E-01
4.02345957927880E-01
3.92085702856575E-01
4.47534523849523E-01
4.58266544100251E-01
3.67381975484949E-01
3.65128815169836E-01
3.66142307480376E-01
3.57593731715368E-01
3.57360833164904E-01
3.69984516256963E-01
4.49537011444185E-01
4.40351865240675E-01
4.47503263006057E-01
4.13225425282599E-01
3.97377616519120E-01
3.80814647882954E-01
4.63270697990072E-01
3.95408942000821E-01
4.01307530686530E-01
4.14474785030560E-01
4.66354630727725E-01
4.08287292484503E-01
3.95901398896031E-01
4.17741424019359E-01
3.86536221156069E-01
3.77579402123199E-01
3.79495493372828E-01
3.66448570460346E-01
3.66131595891595E-01
3.53923060227499E-01
3.55732421743589E-01
3.73987776992184E-01
3.57735022348166E-01
3.79003486301796E-01
3.39743996023685E-01
3.80793691480429E-01
3.75013420690091E-01
3.96078500418101E-01
3.91424044156164E-01
3.80048268396751E-01
3.74368543114188E-01
3.99820406226391E-01
4.01935948116501E-01
3.75847883767406E-01
4.04688070570479E-01
4.04674148905632E-01
3.56866203140819E-01
3.83844597582805E-01
3.47943847158029E-01
4.14966421525511E-01
4.19935537655661E-01
4.38367717286290E-01
3.93469838765089E-01
3.96889087081437E-01
4.66118907637349E-01
4.60093343499666E-01
4.21721238455182E-01
4.37239820752202E-01
3.52470853966568E-01
3.51536686973637E-01
3.37633583585536E-01
3.59831432895040E-01
3.22533737958808E-01
3.51785288327722E-01
3.90987206181382E-01
4.01646419573018E-01
3.48868181997440E-01
3.82191102999559E-01
4.02316447696898E-01
3.82624517971504E-01
3.81070464625025E-01
4.00844376049917E-01
3.96888284905216E-01
3.40208476977971E-01
3.25986955636692E-01
3.53548489431600E-01
3.66900121235471E-01
3.40802635628936E-01
3.43183283838974E-01
3.36150386910657E-01
3.85160765914631E-01
3.80155897653680E-01
3.90257063968059E-01
3.79763803076298E-01
3.58509660233027E-01
3.54008693511513E-01
3.59910785845836E-01
3.79867931068294E-01
3.79478983753644E-01
3.78447058019233E-01
3.95993177702928E-01
3.39156963428083E-01
3.57984159489937E-01
3.58606349018406E-01
3.95644010088221E-01
3.08930496618726E-01
3.28166530738878E-01
3.50676793382777E-01
3.56635840601286E-01
3.51648310599677E-01
3.75728342786374E-01
3.71097287476106E-01
3.93307392656429E-01
3.97725280433050E-01
4.33093755127093E-01
4.44852676155715E-01
3.67437461993848E-01
4.67320216857530E-01
4.59330390841696E-01
3.39947901565638E-01
3.62986224248593E-01
3.31488338752874E-01
4.19995438372930E-01
3.59984634228149E-01
3.76711212886675E-01
4.68491013120250E-01
4.59696971238338E-01
3.75333233865001E-01
3.06687877549800E-01
3.08635561429007E-01
2.93247685169347E-01
3.23303817403122E-01
3.38637525974351E-01
3.36613838878117E-01
3.48779449225082E-01
3.65108588626896E-01
3.59893376545615E-01
4.05431119700325E-01
3.89152648957290E-01
3.82846279190823E-01
3.00631977347115E-01
4.41982537317376E-01
4.39946095241491E-01
3.22911813976542E-01
4.46755746344771E-01
4.38572854618473E-01
3.33509876572999E-01
4.33415742571531E-01
4.37064796942786E-01
4.47026503094109E-01
4.54775337877687E-01
3.08344680037272E-01
4.66425395095062E-01
4.65156781907693E-01
4.69733471295911E-01
4.19010994211349E-01
3.94695406057316E-01
4.35707695585346E-01
3.56722952268196E-01
3.82466606387500E-01
4.54749458415220E-01
4.52891842827420E-01
4.51593039993269E-01
3.42605304245619E-01
3.26108986407738E-01
4.50747320452996E-01
4.28123839201146E-01
3.42294184472076E-01
3.79365705063176E-01
4.59490399257291E-01
3.62726306359326E-01
3.71120687852653E-01
3.90333261766722E-01
3.51564646955315E-01
3.57064816568545E-01
3.71744106340352E-01
3.56247693932469E-01
4.20520803024099E-01
3.00940466660068E-01
4.01319695749507E-01
4.04128313445456E-01
4.35545473677667E-01
4.21876108814769E-01
4.41118838108450E-01
4.70278704856455E-01
4.28865529755460E-01
4.03716932440460E-01
4.12003212100853E-01
4.45980335977667E-01
4.17063400635197E-01
4.60598638820353E-01
4.05822478479711E-01
4.49868619294799E-01
4.47837108861422E-01
4.69705130244881E-01
3.40432168055615E-01
3.87182350420276E-01
4.00810639335301E-01
4.61688462035199E-01
4.12997397194986E-01
4.56239823000791E-01
4.03334139260516E-01
3.53843577517013E-01
3.64366663086724E-01
4.54309960033961E-01
3.53226997150518E-01
4.53975870986180E-01
3.89147210007025E-01
3.37080801400771E-01
3.83203376612071E-01
4.43684900250495E-01
4.07580296107065E-01
4.22614380875766E-01
4.14226803319983E-01
4.64700133134622E-01
4.00396504914090E-01
4.09173571216994E-01
3.07305633090935E-01
3.10639609798101E-01
4.71009210446430E-01
4.66126653849017E-01
4.62412181792163E-01
4.49569113773913E-01
4.55674765197590E-01
4.49770549948918E-01
3.93024209923858E-01
4.36813051602839E-01
4.34264039802324E-01
4.18941239151253E-01
2.94217592248077E-01
3.69388403636243E-01
3.61185689986370E-01
3.50927213588085E-01
3.38765496024287E-01
3.24080956761450E-01
4.07647167426514E-01
4.14825242424058E-01
4.09710750056028E-01
3.74386976997359E-01
3.73430995708512E-01
3.72281918556824E-01
3.43682632848980E-01
3.32774256900468E-01
3.98134972876032E-01
3.36767089972787E-01
3.07491666550021E-01
4.10957488534104E-01
3.78422881684179E-01
3.34500479438521E-01
3.80090961069069E-01
3.07005042905871E-01
3.69335351756844E-01
2.91460516002762E-01
3.65432284893562E-01
3.76896681008692E-01
3.70092633700764E-01
3.67022618718716E-01
2.91404781759305E-01
3.77554156681740E-01
4.05022231574078E-01
3.80042633235671E-01
3.87479088762592E-01
3.56902136454825E-01
3.09222630172696E-01
3.07822387267184E-01
3.61792205369540E-01
3.16505292151454E-01
3.40040723699820E-01
3.32404552581753E-01
3.34679829558897E-01
3.26495126455299E-01
3.77023480840788E-01
3.80237583203278E-01
2.78307410981011E-01
2.77825493531552E-01
2.77423244437070E-01
3.25770196678797E-01
3.71334355611769E-01
3.98071207064250E-01
3.64748956952980E-01
3.45207480237552E-01
2.77223366705471E-01
3.52794377909597E-01
3.34096443526563E-01
3.93888783965843E-01
3.82007513705091E-01
4.14890925824617E-01
3.89193569936744E-01
3.20608218488317E-01
