# vtk DataFile Version 2.0
outputfile
ASCII
DATASET UNSTRUCTURED_GRID
POINTS 69 double
   0.0000000000000000        0.0000000000000000        0.0000000000000000     
   1.0000000000000000        0.0000000000000000        0.0000000000000000     
   1.0000000000000000        1.0000000000000000        0.0000000000000000     
   0.0000000000000000        1.0000000000000000        0.0000000000000000     
   0.0000000000000000        0.0000000000000000        1.0000000000000000     
   1.0000000000000000        0.0000000000000000        1.0000000000000000     
   1.0000000000000000        1.0000000000000000        1.0000000000000000     
   0.0000000000000000        1.0000000000000000        1.0000000000000000     
  0.49999999999867178        0.0000000000000000        0.0000000000000000     
   1.0000000000000000       0.49999999999867178        0.0000000000000000     
  0.50000000000133049        1.0000000000000000        0.0000000000000000     
   0.0000000000000000       0.50000000000133049        0.0000000000000000     
  0.49999999999867178        0.0000000000000000        1.0000000000000000     
   1.0000000000000000       0.49999999999867178        1.0000000000000000     
  0.50000000000133049        1.0000000000000000        1.0000000000000000     
   0.0000000000000000       0.50000000000133049        1.0000000000000000     
   0.0000000000000000        0.0000000000000000       0.49999999999867178     
   1.0000000000000000        0.0000000000000000       0.49999999999867178     
   1.0000000000000000        1.0000000000000000       0.49999999999867178     
   0.0000000000000000        1.0000000000000000       0.49999999999867178     
  0.50000000000000111       0.50000000000000111        0.0000000000000000     
  0.50000000000000111       0.50000000000000111        1.0000000000000000     
  0.49999999999867167        0.0000000000000000       0.49999999999867167     
   1.0000000000000000       0.49999999999867167       0.49999999999867167     
  0.50000000000133049        1.0000000000000000       0.49999999999867167     
   0.0000000000000000       0.50000000000133049       0.49999999999867167     
  0.50000000000000000       0.50000000000000000       0.45000050000000003     
  0.50000000000000000       0.50000000000000000       0.54999949999999997     
  0.50000000000000000       0.45000050000000003       0.50000000000000000     
  0.54999949999999997       0.50000000000000000       0.50000000000000000     
  0.50000000000000000       0.54999949999999997       0.50000000000000000     
  0.45000050000000003       0.50000000000000000       0.50000000000000000     
  0.22500025000000001       0.25000000000000000       0.75000000000000000     
  0.22500025000000001       0.25000000000000000       0.25000000000000000     
  0.47500025000000001       0.47500025000000001       0.50000000000000000     
  0.25000000000000000       0.22500025000000001       0.25000000000000000     
  0.25000000000000000       0.22500025000000001       0.75000000000000000     
  0.25000000000000000       0.25000000000000000       0.77499974999999999     
  0.50000000000000000       0.47500025000000001       0.52499974999999999     
  0.75000000000000000       0.25000000000000000       0.77499974999999999     
  0.75000000000000000       0.22500025000000001       0.75000000000000000     
  0.50000000000000000       0.52499974999999999       0.47500025000000001     
  0.47500025000000001       0.52499974999999999       0.50000000000000000     
  0.47500025000000001       0.50000000000000000       0.47500025000000001     
  0.52499974999999999       0.50000000000000000       0.47500025000000001     
  0.50000000000000000       0.50000000000000000       0.50000000000000000     
  0.52499974999999999       0.52499974999999999       0.50000000000000000     
  0.25000000000000000       0.75000000000000000       0.77499974999999999     
  0.22500025000000001       0.75000000000000000       0.75000000000000000     
  0.47500025000000001       0.50000000000000000       0.52499974999999999     
  0.25000000000000000       0.77499974999999999       0.25000000000000000     
  0.25000000000000000       0.77499974999999999       0.75000000000000000     
  0.22500025000000001       0.75000000000000000       0.25000000000000000     
  0.25000000000000000       0.25000000000000000       0.22500025000000001     
  0.25000000000000000       0.75000000000000000       0.22500025000000001     
  0.52499974999999999       0.47500025000000001       0.50000000000000000     
  0.52499974999999999       0.50000000000000000       0.52499974999999999     
  0.50000000000000000       0.47500025000000001       0.47500025000000001     
  0.50000000000000000       0.52499974999999999       0.52499974999999999     
  0.75000000000000000       0.77499974999999999       0.75000000000000000     
  0.75000000000000000       0.75000000000000000       0.77499974999999999     
  0.75000000000000000       0.75000000000000000       0.22500025000000001     
  0.75000000000000000       0.77499974999999999       0.25000000000000000     
  0.77499974999999999       0.75000000000000000       0.75000000000000000     
  0.77499974999999999       0.25000000000000000       0.75000000000000000     
  0.77499974999999999       0.25000000000000000       0.25000000000000000     
  0.75000000000000000       0.22500025000000001       0.25000000000000000     
  0.75000000000000000       0.25000000000000000       0.22500025000000001     
  0.77499974999999999       0.75000000000000000       0.25000000000000000     

CELLS 30 354
10 31 4 0 28 32 16 33 34 36 35
10 27 4 28 5 37 36 38 39 12 40
10 26 30 31 29 41 42 43 44 46 45
10 7 27 4 31 47 37 15 48 49 32
10 7 3 30 31 19 50 51 48 52 42
10 3 0 26 31 11 53 54 52 33 43
10 28 31 27 29 34 49 38 55 45 56
10 28 26 31 29 57 43 34 55 44 45
10 31 30 27 29 42 58 49 45 46 56
10 30 7 27 6 51 47 58 59 14 60
10 3 30 26 2 50 41 54 10 62 61
10 6 5 27 29 13 39 60 63 64 56
10 29 5 28 1 64 40 55 65 17 66
10 0 26 28 1 53 57 35 8 67 66
10 2 6 30 29 18 59 62 68 63 46
10 29 26 2 1 44 61 68 65 67 9
10 31 0 26 28 33 53 43 34 35 57
10 27 4 31 28 37 32 49 38 36 34
10 27 7 30 31 47 51 58 49 48 42
10 26 30 3 31 41 50 54 43 42 52
10 5 28 27 29 40 38 39 64 55 56
10 30 26 2 29 41 61 62 46 44 68
10 27 30 6 29 58 59 60 56 46 63
10 29 28 26 1 55 57 44 65 66 67
14 0 1 2 3 26 8 9 10 11 53 67 61 54 20
14 6 5 4 7 27 13 12 15 14 60 39 37 47 21
14 5 1 0 4 28 17 8 16 12 40 66 35 36 22
14 6 2 1 5 29 18 9 17 13 63 68 65 64 23
14 7 3 2 6 30 19 10 18 14 51 50 62 59 24
14 4 0 3 7 31 16 11 19 15 32 33 52 48 25

CELL_TYPES 30
24
24
24
24
24
24
24
24
24
24
24
24
24
24
24
24
24
24
24
24
24
24
24
24
14
14
14
14
14
14

CELL_DATA 30

SCALARS blocks int 1
LOOKUP_TABLE default
0
1
2
3
4
5
6
7
8
9
10
11
12
13
14
15
16
17
18
19
20
21
22
23
24
25
26
27
28
29

SCALARS material int 1
LOOKUP_TABLE default
1
1
1
1
1
1
1
1
1
1
1
1
1
1
1
1
1
1
1
1
1
1
1
1
1
1
1
1
1
1

POINT_DATA 69
SCALARS scalar_flux_1 double 1
LOOKUP_TABLE default
4.44453602603185E-02
4.44453604799280E-02
4.44453654443111E-02
4.44453614796526E-02
4.44453598854234E-02
4.44453600549634E-02
4.44453598809849E-02
4.44453604285415E-02
2.57079093600034E-01
2.69851821579889E-01
2.57079093788563E-01
2.69851820868993E-01
2.57079092562243E-01
2.69851819082092E-01
2.57079091657021E-01
2.69851821135110E-01
2.63834591438557E-01
2.63834591300196E-01
2.63834591460258E-01
2.63834591616593E-01
4.27187557315496E-01
4.27187555736899E-01
3.89593762826970E-01
3.88740680115084E-01
3.89593763123001E-01
3.88740679174972E-01
7.70123902672789E-01
7.70123903453424E-01
7.72874847360780E-01
7.72875341593635E-01
7.72874850159979E-01
7.72875336883924E-01
5.34933270909218E-01
5.34933271597162E-01
7.74972920841945E-01
5.34872454983662E-01
5.34872455263709E-01
5.33875348476163E-01
7.73962686511272E-01
5.33875349690404E-01
5.34872455809856E-01
7.73962686543078E-01
7.74972920680508E-01
7.74021758471137E-01
7.74021762331110E-01
7.76281960263343E-01
7.74972925634980E-01
5.33875349694661E-01
5.34933272357823E-01
7.74021760823818E-01
5.34872456900712E-01
5.34872456681960E-01
5.34933270998950E-01
5.33875348968014E-01
5.33875350281345E-01
7.74972922506469E-01
7.74021762111276E-01
7.73962685333707E-01
7.73962686837716E-01
5.34872455069010E-01
5.33875346974726E-01
5.33875355070269E-01
5.34872461349000E-01
5.34933271305237E-01
5.34933271697395E-01
5.34933272532157E-01
5.34872454609839E-01
5.33875349049476E-01
5.34933279127243E-01
