# vtk DataFile Version 2.0
outputfile
ASCII
DATASET UNSTRUCTURED_GRID
POINTS 505 double
   0.0000000000000000        0.0000000000000000        0.0000000000000000     
   1.0000000000000000        0.0000000000000000        0.0000000000000000     
   1.0000000000000000        1.0000000000000000        0.0000000000000000     
   0.0000000000000000        1.0000000000000000        0.0000000000000000     
   4.9999999999899652E-002   0.0000000000000000        0.0000000000000000     
   9.9999999999814668E-002   0.0000000000000000        0.0000000000000000     
  0.14999999999970359        0.0000000000000000        0.0000000000000000     
  0.19999999999955789        0.0000000000000000        0.0000000000000000     
  0.24999999999941211        0.0000000000000000        0.0000000000000000     
  0.29999999999926641        0.0000000000000000        0.0000000000000000     
  0.34999999999912063        0.0000000000000000        0.0000000000000000     
  0.39999999999897490        0.0000000000000000        0.0000000000000000     
  0.44999999999882923        0.0000000000000000        0.0000000000000000     
  0.49999999999869432        0.0000000000000000        0.0000000000000000     
  0.54999999999881510        0.0000000000000000        0.0000000000000000     
  0.59999999999894682        0.0000000000000000        0.0000000000000000     
  0.64999999999907843        0.0000000000000000        0.0000000000000000     
  0.69999999999921003        0.0000000000000000        0.0000000000000000     
  0.74999999999934175        0.0000000000000000        0.0000000000000000     
  0.79999999999947335        0.0000000000000000        0.0000000000000000     
  0.84999999999960507        0.0000000000000000        0.0000000000000000     
  0.89999999999973679        0.0000000000000000        0.0000000000000000     
  0.94999999999986839        0.0000000000000000        0.0000000000000000     
   1.0000000000000000       0.94999999999979179        0.0000000000000000     
   1.0000000000000000       0.89999999999958358        0.0000000000000000     
   1.0000000000000000       0.84999999999965292        0.0000000000000000     
   1.0000000000000000       0.79999999999999982        0.0000000000000000     
   1.0000000000000000       0.75000000000034661        0.0000000000000000     
   1.0000000000000000       0.70000000000069340        0.0000000000000000     
   1.0000000000000000       0.65000000000104008        0.0000000000000000     
   1.0000000000000000       0.60000000000138687        0.0000000000000000     
   1.0000000000000000       0.55000000000173355        0.0000000000000000     
   1.0000000000000000       0.50000000000205869        0.0000000000000000     
   1.0000000000000000       0.45000000000187229        0.0000000000000000     
   1.0000000000000000       0.40000000000166441        0.0000000000000000     
   1.0000000000000000       0.35000000000145642        0.0000000000000000     
   1.0000000000000000       0.30000000000124832        0.0000000000000000     
   1.0000000000000000       0.25000000000104028        0.0000000000000000     
   1.0000000000000000       0.20000000000083221        0.0000000000000000     
   1.0000000000000000       0.15000000000062411        0.0000000000000000     
   1.0000000000000000       0.10000000000041601        0.0000000000000000     
   1.0000000000000000        5.0000000000207989E-002   0.0000000000000000     
  0.94999999999979179        1.0000000000000000        0.0000000000000000     
  0.89999999999958358        1.0000000000000000        0.0000000000000000     
  0.84999999999965292        1.0000000000000000        0.0000000000000000     
  0.79999999999999982        1.0000000000000000        0.0000000000000000     
  0.75000000000034661        1.0000000000000000        0.0000000000000000     
  0.70000000000069340        1.0000000000000000        0.0000000000000000     
  0.65000000000104008        1.0000000000000000        0.0000000000000000     
  0.60000000000138687        1.0000000000000000        0.0000000000000000     
  0.55000000000173355        1.0000000000000000        0.0000000000000000     
  0.50000000000205869        1.0000000000000000        0.0000000000000000     
  0.45000000000187229        1.0000000000000000        0.0000000000000000     
  0.40000000000166441        1.0000000000000000        0.0000000000000000     
  0.35000000000145642        1.0000000000000000        0.0000000000000000     
  0.30000000000124832        1.0000000000000000        0.0000000000000000     
  0.25000000000104028        1.0000000000000000        0.0000000000000000     
  0.20000000000083221        1.0000000000000000        0.0000000000000000     
  0.15000000000062411        1.0000000000000000        0.0000000000000000     
  0.10000000000041601        1.0000000000000000        0.0000000000000000     
   5.0000000000207989E-002   1.0000000000000000        0.0000000000000000     
   0.0000000000000000       0.94999999999979179        0.0000000000000000     
   0.0000000000000000       0.89999999999958358        0.0000000000000000     
   0.0000000000000000       0.84999999999965292        0.0000000000000000     
   0.0000000000000000       0.79999999999999982        0.0000000000000000     
   0.0000000000000000       0.75000000000034661        0.0000000000000000     
   0.0000000000000000       0.70000000000069340        0.0000000000000000     
   0.0000000000000000       0.65000000000104008        0.0000000000000000     
   0.0000000000000000       0.60000000000138687        0.0000000000000000     
   0.0000000000000000       0.55000000000173355        0.0000000000000000     
   0.0000000000000000       0.50000000000205869        0.0000000000000000     
   0.0000000000000000       0.45000000000187229        0.0000000000000000     
   0.0000000000000000       0.40000000000166441        0.0000000000000000     
   0.0000000000000000       0.35000000000145642        0.0000000000000000     
   0.0000000000000000       0.30000000000124832        0.0000000000000000     
   0.0000000000000000       0.25000000000104028        0.0000000000000000     
   0.0000000000000000       0.20000000000083221        0.0000000000000000     
   0.0000000000000000       0.15000000000062411        0.0000000000000000     
   0.0000000000000000       0.10000000000041601        0.0000000000000000     
   0.0000000000000000        5.0000000000207989E-002   0.0000000000000000     
  0.46314821656525579       0.95514899321372082        0.0000000000000000     
  0.95669472764970509       0.49443613635555428        0.0000000000000000     
   4.1738696614889138E-002  0.49622487473382298        0.0000000000000000     
  0.54920971604198476        4.4950339730122808E-002   0.0000000000000000     
  0.95889936649149554       0.69184950794362821        0.0000000000000000     
   5.6861288618538841E-002  0.65900873715181929        0.0000000000000000     
  0.33332087986118542        4.6016368748656888E-002   0.0000000000000000     
  0.65647019732163092       0.95389335645739159        0.0000000000000000     
  0.95654146838055898       0.29513435574510472        0.0000000000000000     
  0.31945108858884103       0.95517766022397010        0.0000000000000000     
   4.7413631872400698E-002  0.35076092107080797        0.0000000000000000     
  0.69884711980629155        4.5675398263482797E-002   0.0000000000000000     
  0.95841918113864466       0.80414829075456207        0.0000000000000000     
   4.5502662142809312E-002  0.81236207604135757        0.0000000000000000     
   4.0047346579859158E-002  0.17537438831828711        0.0000000000000000     
  0.83121004133248200        5.7869642935671838E-002   0.0000000000000000     
  0.81197320460865996       0.95138902290985849        0.0000000000000000     
  0.17237799469023410       0.95839828930153692        0.0000000000000000     
  0.18856030550540789        4.4080461895546597E-002   0.0000000000000000     
  0.95664155725027744       0.39490126831429212        0.0000000000000000     
  0.95599298886726092       0.19468028930078371        0.0000000000000000     
  0.43070456290092868        4.8960292873736613E-002   0.0000000000000000     
  0.95686315312463521       0.59416162347434842        0.0000000000000000     
  0.55817969127170897       0.95488330965780877        0.0000000000000000     
   4.0231631595507911E-002  0.57249019934004908        0.0000000000000000     
  0.95532792076162631       0.90239373875381634        0.0000000000000000     
   4.5509232118940632E-002  0.90842833645186383        0.0000000000000000     
   4.4159543747626637E-002   9.5347801344847563E-002   0.0000000000000000     
  0.95562669714357296        9.5063775978714404E-002   0.0000000000000000     
  0.95667039825492062       0.44486490482384061        0.0000000000000000     
  0.91327692772692304       0.44110576016520531        0.0000000000000000     
  0.91336332694246825       0.49093288487171860        0.0000000000000000     
  0.87002138712830401       0.48898812111076118        0.0000000000000000     
  0.87011065570671886       0.53874276980420832        0.0000000000000000     
  0.82669626373124794       0.48778294295447350        0.0000000000000000     
  0.82679051859409824       0.53766164560132312        0.0000000000000000     
  0.78347973782924507       0.53517994516123324        0.0000000000000000     
  0.78345635079588516       0.48503598183156299        0.0000000000000000     
  0.74033505129784960       0.47848626725353133        0.0000000000000000     
  0.74062309732149423       0.42891748737032881        0.0000000000000000     
  0.69715229030496406       0.46617916876982912        0.0000000000000000     
  0.69636076216365461       0.51608252074514616        0.0000000000000000     
  0.65157546415733147       0.50044659733728603        0.0000000000000000     
  0.65358619107106353       0.45068722973306408        0.0000000000000000     
  0.60737146179453183       0.48534440986149191        0.0000000000000000     
[...]
CELL_DATA 464

SCALARS blocks int 1
LOOKUP_TABLE default
0
1
2
3
4
5
6
7
8
9
10
11
12
13
14
15
16
17
18
19
20
21
22
23
24
25
26
27
28
29
30
31
32
33
34
35
36
37
38
39
40
41
42
43
44
45
46
47
48
49
50
51
52
53
54
55
56
57
58
59
60
61
62
63
64
65
66
67
68
69
70
71
72
73
74
75
76
77
78
79
80
81
82
83
84
85
86
87
88
89
90
91
92
93
94
95
96
97
98
99
100
101
102
103
104
105
106
107
108
109
110
111
112
113
114
115
116
117
118
119
120
121
122
123
124
125
126
127
128
129
130
131
132
133
134
135
136
137
138
139
140
141
142
143
144
145
146
147
148
149
150
151
152
153
154
155
156
157
158
159
160
161
162
163
164
165
166
167
168
169
170
171
172
173
174
175
176
177
178
179
180
181
182
183
184
185
186
187
188
189
190
191
192
193
194
195
196
197
198
199
200
201
202
203
204
205
206
207
208
209
210
211
212
213
214
215
216
217
218
219
220
221
222
223
224
225
226
227
228
229
230
231
232
233
234
235
236
237
238
239
240
241
242
243
244
245
246
247
248
249
250
251
252
253
254
255
256
257
258
259
260
261
262
263
264
265
266
267
268
269
270
271
272
273
274
275
276
277
278
279
280
281
282
283
284
285
286
287
288
289
290
291
292
293
294
295
296
297
298
299
300
301
302
303
304
305
306
307
308
309
310
311
312
313
314
315
316
317
318
319
320
321
322
323
324
325
326
327
328
329
330
331
332
333
334
335
336
337
338
339
340
341
342
343
344
345
346
347
348
349
350
351
352
353
354
355
356
357
358
359
360
361
362
363
364
365
366
367
368
369
370
371
372
373
374
375
376
377
378
379
380
381
382
383
384
385
386
387
388
389
390
391
392
393
394
395
396
397
398
399
400
401
402
403
404
405
406
407
408
409
410
411
412
413
414
415
416
417
418
419
420
421
422
423
424
425
426
427
428
429
430
431
432
433
434
435
436
437
438
439
440
441
442
443
444
445
446
447
448
449
450
451
452
453
454
455
456
457
458
459
460
461
462
463

SCALARS material int 1
LOOKUP_TABLE default
1
1
1
1
1
1
1
1
1
1
1
1
1
1
1
1
1
1
1
1
1
1
1
1
1
1
1
1
1
1
1
1
1
1
1
1
1
1
1
1
1
1
1
1
1
1
1
1
1
1
1
1
1
1
1
1
1
1
1
1
1
1
1
1
1
1
1
1
1
1
1
1
1
1
1
1
1
1
1
1
1
1
1
1
1
1
1
1
1
1
1
1
1
1
1
1
1
1
1
1
1
1
1
1
1
1
1
1
1
1
1
1
1
1
1
1
1
1
1
1
1
1
1
1
1
1
1
1
1
1
1
1
1
1
1
1
1
1
1
1
1
1
1
1
1
1
1
1
1
1
1
1
1
1
1
1
1
1
1
1
1
1
1
1
1
1
1
1
1
1
1
1
1
1
1
1
1
1
1
1
1
1
1
1
1
1
1
1
1
1
1
1
1
1
1
1
1
1
1
1
1
1
1
1
1
1
1
1
1
1
1
1
1
1
1
1
1
1
1
1
1
1
1
1
1
1
1
1
1
1
1
1
1
1
1
1
1
1
1
1
1
1
1
1
1
1
1
1
1
1
1
1
1
1
1
1
1
1
1
1
1
1
1
1
1
1
1
1
1
1
1
1
1
1
1
1
1
1
1
1
1
1
1
1
1
1
1
1
1
1
1
1
1
1
1
1
1
1
1
1
1
1
1
1
1
1
1
1
1
1
1
1
1
1
1
1
1
1
1
1
1
1
1
1
1
1
1
1
1
1
1
1
1
1
1
1
1
1
1
1
1
1
1
1
1
1
1
1
1
1
1
1
1
1
1
1
1
1
1
1
1
1
1
1
1
1
1
1
1
1
1
1
1
1
1
1
1
1
1
1
1
1
1
1
1
1
1
1
1
1
1
1
1
1
1
1
1
1
1
1
1
1
1
1
1
1
1
1
1
1
1
1
1
1
1
1
1
1
1
1
1
1
1
1
1
1
1
1
1
1
1
1
1
1
1
1
1
1
1
1
1
1
1
1
1
1
1
1
1
1
1
1
1
1
1
1
1
1
1
1
1
1
1
1

POINT_DATA 505
SCALARS scalar_flux_1 double 1
LOOKUP_TABLE default
1.37391571293402E-01
1.37365397407711E-01
1.37496108835624E-01
1.37375464452361E-01
1.98139470351861E-01
2.55589480428503E-01
3.08663999906454E-01
3.56692789249793E-01
3.98697618868834E-01
4.34067228393566E-01
4.62253593494565E-01
4.82749162386174E-01
4.95385726669735E-01
4.99457528617432E-01
4.95346903003868E-01
4.82787958491699E-01
4.62313817509452E-01
4.34205957647911E-01
3.98948721528884E-01
3.56732497626203E-01
3.08917409790646E-01
2.54650969119927E-01
1.98013900899076E-01
1.98184556012222E-01
2.55598523851668E-01
3.08569627441692E-01
3.55977170454722E-01
3.99147931615052E-01
4.34303691818890E-01
4.62115484597748E-01
4.82487320506055E-01
4.94900317638108E-01
4.99056969638777E-01
4.94912819626208E-01
4.82525746127585E-01
4.62105872255010E-01
4.34000685833288E-01
3.98664210024833E-01
3.56730671593405E-01
3.08862044932390E-01
2.55759024749519E-01
1.98194203555740E-01
1.98254600752660E-01
2.55704877456695E-01
3.08808588541493E-01
3.56889078323763E-01
3.98891126388450E-01
4.34459631628138E-01
4.62314490091668E-01
4.82546193255483E-01
4.94942530990757E-01
4.99134468586748E-01
4.94995425696867E-01
4.82627582759941E-01
4.62288239612058E-01
4.34214897895174E-01
3.98504960469453E-01
3.57146232448131E-01
3.09301810101650E-01
2.54869619510441E-01
1.98096485237142E-01
1.98201151046951E-01
2.55716261479513E-01
3.08718339471333E-01
3.56598095923137E-01
3.98522955562240E-01
4.34281214061805E-01
4.62094067368182E-01
4.82165098393502E-01
4.95591376106737E-01
4.98832091065165E-01
4.94820069563471E-01
4.82432339847316E-01
4.62098067195092E-01
4.34138475494342E-01
3.99022738254779E-01
3.57362032302524E-01
3.07822903143055E-01
2.55436718525054E-01
1.98094164511489E-01
6.93565060127915E-01
6.89958526460100E-01
6.83003779863367E-01
6.91920403195887E-01
5.98553510527356E-01
6.86779164065174E-01
6.37926732173927E-01
6.45746849537333E-01
5.96337096764474E-01
6.22248104866645E-01
6.55846105748566E-01
6.10274274279080E-01
4.82499974434972E-01
4.84005496611835E-01
4.51269565298611E-01
4.92188810862553E-01
4.94159398324258E-01
4.52193899040588E-01
4.81068617499254E-01
6.65015706454336E-01
4.88704361367085E-01
7.03250053749249E-01
6.68981956335628E-01
6.90001858370362E-01
6.63861663339132E-01
3.52871901172160E-01
3.45455521708513E-01
3.48181657864430E-01
3.48500883573492E-01
6.83161812016913E-01
8.62775088588966E-01
8.72248366364753E-01
1.04363961056327E+00
1.03850114048816E+00
1.20189468168677E+00
1.19649833636405E+00
1.34000535257898E+00
1.34458606819874E+00
1.46928434341447E+00
1.44590069598910E+00
1.57344841551254E+00
1.58000811082619E+00
1.67228737237799E+00
1.65502799122240E+00
1.73855680571453E+00
1.74614435248790E+00
1.78039623550910E+00
1.77886885812966E+00
1.80247948367644E+00
1.79587907560142E+00
1.80787342386736E+00
1.79343612771981E+00
1.78946928649211E+00
1.78761483579504E+00
1.76870091173090E+00
1.73403739052636E+00
1.71573127386962E+00
1.72235438048660E+00
1.65356161949220E+00
1.63315020899122E+00
1.54624529846183E+00
1.52505264067948E+00
1.48663344433049E+00
1.65877395232105E+00
1.55413247220036E+00
1.54247983933399E+00
1.40897638068714E+00
1.37144453925480E+00
1.35582365458252E+00
1.43013431110556E+00
1.74249418098046E+00
1.67560742589776E+00
1.66616336541551E+00
1.58828226968711E+00
1.57893944230824E+00
1.47215756944815E+00
1.48109899875757E+00
1.53963965338135E+00
1.43275050627830E+00
1.46962403755790E+00
1.35938746175656E+00
1.37222733522922E+00
1.23427244565568E+00
1.25648032720791E+00
1.34703000834704E+00
1.31359925847588E+00
1.32759725684575E+00
1.40336645289526E+00
1.29464752079952E+00
1.36267349780814E+00
1.25501465147815E+00
1.30372996898111E+00
1.40424100164549E+00
1.33115690264650E+00
1.44007663126192E+00
1.33508838850961E+00
1.44042176353726E+00
1.18585501445251E+00
1.14395870174685E+00
1.30828846775045E+00
1.09496726445983E+00
1.30198904564545E+00
1.49396843350361E+00
1.20132744603372E+00
1.30210168081295E+00
1.41911574367435E+00
1.30478407957208E+00
1.23654337734155E+00
1.43024235723854E+00
1.33288213509857E+00
1.20818007671924E+00
1.22322704036034E+00
1.35485219565585E+00
1.25980108447215E+00
1.14911155884074E+00
1.04271618028033E+00
1.14154545884980E+00
1.35456576204617E+00
1.10389474132500E+00
9.93710159733105E-01
1.20289704851413E+00
1.40610468836947E+00
1.52793328535201E+00
1.03361287782146E+00
9.27003657234740E-01
1.35657275783062E+00
1.25313530374427E+00
1.25346604596534E+00
1.17178104922947E+00
1.61251357360952E+00
1.33633367832049E+00
1.00587478097055E+00
1.05151611125666E+00
1.20827092030156E+00
9.33022149484643E-01
1.03288729505854E+00
1.02751282809230E+00
1.01965972387899E+00
8.30777004775762E-01
8.60501534753743E-01
1.06377583916518E+00
8.77744861843255E-01
9.80169997186908E-01
1.32035203684100E+00
1.65577018624136E+00
1.64512678364275E+00
1.10452847207485E+00
1.02260895327145E+00
1.53481981042582E+00
1.64657109376531E+00
8.21491673466296E-01
8.08182800120531E-01
8.22058677462083E-01
7.57571412555488E-01
7.50700711116572E-01
8.37354773853024E-01
1.55928317411091E+00
1.46231160513492E+00
1.53878134111094E+00
1.19060855143897E+00
1.06293038935692E+00
9.14161926430733E-01
1.69964135955428E+00
1.03425087253751E+00
1.08070031469990E+00
1.20116002670342E+00
1.73189239571348E+00
1.15705094636910E+00
1.03152654155424E+00
1.23552042482532E+00
9.57739813607355E-01
8.93485448438261E-01
9.23773001723420E-01
8.14912409594110E-01
8.21644610450794E-01
7.28701631585648E-01
7.43391032326810E-01
8.80618072431006E-01
7.54293875252648E-01
9.13993227522417E-01
6.32006326666660E-01
9.21493130324524E-01
8.79312399885593E-01
1.02383750172027E+00
9.88098620454172E-01
9.10874223170979E-01
8.71668893977841E-01
1.06113651345299E+00
1.07752845979889E+00
8.47220795730462E-01
1.10725986553046E+00
1.10417725167155E+00
7.33748329428988E-01
9.44122357699566E-01
6.56932617812916E-01
1.22301998752678E+00
1.26594940536438E+00
1.44311960071410E+00
1.02325319343117E+00
1.03227878337451E+00
1.72931689071325E+00
1.66568074968313E+00
1.27235182274409E+00
1.43078137886135E+00
7.18875588844722E-01
7.12772494104860E-01
6.18129107661270E-01
7.46942897199219E-01
5.18488542731948E-01
6.91444599691776E-01
9.72255519921780E-01
1.07469921222599E+00
6.77048797475817E-01
8.89013964988831E-01
1.08122458885628E+00
8.92512211533742E-01
8.82690879128345E-01
1.07091445799248E+00
1.04058916626518E+00
6.28371821452352E-01
5.40352713206884E-01
7.15185177608646E-01
8.09193220732745E-01
6.20714774672231E-01
6.07546535648045E-01
5.64271701687310E-01
9.65756485146678E-01
9.09392170577596E-01
9.88765744778950E-01
8.67381743199362E-01
6.80274690277181E-01
6.56180073263705E-01
6.85528361359139E-01
8.69054747121893E-01
8.62494086706968E-01
8.64352446260933E-01
1.02753272623301E+00
6.13977459546104E-01
6.79216069703987E-01
6.71642110738617E-01
1.05687961229653E+00
4.23975097532347E-01
5.15200113532890E-01
6.36122769608094E-01
6.67592563840870E-01
6.42241259016483E-01
8.41675818071877E-01
8.14490181932241E-01
1.00637510998501E+00
1.04049290351043E+00
1.39420192206597E+00
1.51115097434957E+00
7.49710188463138E-01
1.74202072040361E+00
1.65829665076747E+00
5.83731250843707E-01
7.66362743833376E-01
5.46766155886833E-01
1.25504721067224E+00
6.85272142785801E-01
8.47556790697270E-01
1.75458755180839E+00
1.66269979485050E+00
8.39493552086623E-01
4.12114474532168E-01
4.37324922875049E-01
3.49402158196602E-01
5.22910631013692E-01
6.24379345221467E-01
6.01899191408957E-01
6.76090962362742E-01
8.07750003889724E-01
7.46608652202761E-01
1.12717967507218E+00
9.74921020224735E-01
9.20076186495625E-01
3.81620875004700E-01
1.48285257340300E+00
1.46371617133179E+00
5.19059974257546E-01
1.53138205483876E+00
1.45056222230954E+00
5.47370711984056E-01
1.39200048050697E+00
1.43589885702932E+00
1.53406355823228E+00
1.61189795341632E+00
4.21941318424718E-01
1.73252512242780E+00
1.71936464159523E+00
1.76767904864147E+00
1.24837391946535E+00
1.01566533932017E+00
1.41326376051453E+00
6.74290152348428E-01
8.99993070342078E-01
1.61145021946861E+00
1.59260595063626E+00
1.57957419917112E+00
6.51178411370663E-01
5.38162403676638E-01
1.56901838882179E+00
1.34878689981552E+00
5.95029567068186E-01
9.23394992185351E-01
1.65970662637056E+00
7.55612284206222E-01
8.10925787360356E-01
9.90569851118592E-01
6.39231940877942E-01
6.73311348980776E-01
8.21248931072648E-01
6.66216643870825E-01
1.26038129624292E+00
3.85653708774561E-01
1.10657304615686E+00
1.11301784179115E+00
1.41741891733276E+00
1.27638795021327E+00
1.46875578127236E+00
1.77352276660529E+00
1.34464041377959E+00
1.12206155499058E+00
1.19748633630094E+00
1.52240331408039E+00
1.23886330786487E+00
1.67203541503534E+00
1.14056068551118E+00
1.56007387327827E+00
1.53991062320401E+00
1.76742371434644E+00
6.28565503449618E-01
9.70473886843091E-01
1.09591373438967E+00
1.68327302372936E+00
1.18880663912937E+00
1.62679444269279E+00
1.12420413818693E+00
7.18647379965135E-01
8.01526831630210E-01
1.60729650286755E+00
7.22456892479516E-01
1.60374749278232E+00
1.00454770923417E+00
5.59671982236711E-01
9.38562942810674E-01
1.49895987861870E+00
1.14283159887930E+00
1.28940602191737E+00
1.21943807778831E+00
1.71454418852782E+00
1.09241406515183E+00
1.15888949048935E+00
4.30146903521723E-01
4.48757814268912E-01
1.78126734819986E+00
1.72963533874750E+00
1.69086897692593E+00
1.55694551426019E+00
1.62125770731945E+00
1.55787250576225E+00
1.00464067294483E+00
1.42462637399487E+00
1.39879905807653E+00
1.24473893739016E+00
3.54679991707829E-01
8.01994749252865E-01
7.50638740265079E-01
6.87564828110032E-01
6.14369783984935E-01
5.27275098407904E-01
1.15123021492054E+00
1.21273032213227E+00
1.16341801793117E+00
8.29628953542467E-01
8.09542978591894E-01
8.20292567764222E-01
6.06162485347168E-01
5.46170262920355E-01
1.04020321641769E+00
6.03268710981199E-01
4.18499632935262E-01
1.17147030510134E+00
8.78505836190285E-01
5.51516227667192E-01
8.72286334290128E-01
4.28376896233335E-01
8.08781439010958E-01
3.40427939909995E-01
7.83278867440705E-01
8.60437307809753E-01
8.10978364769558E-01
7.92264292589576E-01
3.39404195547108E-01
8.59834231402963E-01
1.12682645783285E+00
8.75052743000501E-01
9.40604902794326E-01
7.32414308601405E-01
4.28749906305529E-01
4.19821295775591E-01
6.98726524414903E-01
4.79653761815555E-01
6.23220670744372E-01
5.42996183431601E-01
5.62413266396794E-01
5.15054625391894E-01
8.94109253994903E-01
9.31136790340426E-01
2.78776263340509E-01
2.76562611988795E-01
2.74802021002634E-01
5.04282669620676E-01
8.29437836310000E-01
1.04145929231944E+00
7.78938400448038E-01
6.11791277412986E-01
2.73881355392147E-01
7.21658714279096E-01
5.77792161046008E-01
1.01441487880218E+00
8.86503797085376E-01
1.20779295068006E+00
9.79301480445547E-01
5.02307938274474E-01

SCALARS scalar_flux_2 double 1
LOOKUP_TABLE default
0.00000000000000E+00
0.00000000000000E+00
0.00000000000000E+00
0.00000000000000E+00
0.00000000000000E+00
0.00000000000000E+00
0.00000000000000E+00
0.00000000000000E+00
0.00000000000000E+00
0.00000000000000E+00
0.00000000000000E+00
0.00000000000000E+00
0.00000000000000E+00
0.00000000000000E+00
0.00000000000000E+00
0.00000000000000E+00
0.00000000000000E+00
0.00000000000000E+00
0.00000000000000E+00
0.00000000000000E+00
0.00000000000000E+00
0.00000000000000E+00
0.00000000000000E+00
0.00000000000000E+00
0.00000000000000E+00
0.00000000000000E+00
0.00000000000000E+00
0.00000000000000E+00
0.00000000000000E+00
0.00000000000000E+00
0.00000000000000E+00
0.00000000000000E+00
0.00000000000000E+00
0.00000000000000E+00
0.00000000000000E+00
0.00000000000000E+00
0.00000000000000E+00
0.00000000000000E+00
0.00000000000000E+00
0.00000000000000E+00
0.00000000000000E+00
0.00000000000000E+00
0.00000000000000E+00
0.00000000000000E+00
0.00000000000000E+00
0.00000000000000E+00
0.00000000000000E+00
0.00000000000000E+00
0.00000000000000E+00
0.00000000000000E+00
0.00000000000000E+00
0.00000000000000E+00
0.00000000000000E+00
0.00000000000000E+00
0.00000000000000E+00
0.00000000000000E+00
0.00000000000000E+00
0.00000000000000E+00
0.00000000000000E+00
0.00000000000000E+00
0.00000000000000E+00
0.00000000000000E+00
0.00000000000000E+00
0.00000000000000E+00
0.00000000000000E+00
0.00000000000000E+00
0.00000000000000E+00
0.00000000000000E+00
0.00000000000000E+00
0.00000000000000E+00
0.00000000000000E+00
0.00000000000000E+00
0.00000000000000E+00
0.00000000000000E+00
0.00000000000000E+00
0.00000000000000E+00
0.00000000000000E+00
0.00000000000000E+00
0.00000000000000E+00
0.00000000000000E+00
0.00000000000000E+00
0.00000000000000E+00
0.00000000000000E+00
0.00000000000000E+00
0.00000000000000E+00
0.00000000000000E+00
0.00000000000000E+00
0.00000000000000E+00
0.00000000000000E+00
0.00000000000000E+00
0.00000000000000E+00
0.00000000000000E+00
0.00000000000000E+00
0.00000000000000E+00
0.00000000000000E+00
0.00000000000000E+00
0.00000000000000E+00
0.00000000000000E+00
0.00000000000000E+00
0.00000000000000E+00
0.00000000000000E+00
0.00000000000000E+00
0.00000000000000E+00
0.00000000000000E+00
0.00000000000000E+00
0.00000000000000E+00
0.00000000000000E+00
0.00000000000000E+00
0.00000000000000E+00
0.00000000000000E+00
0.00000000000000E+00
0.00000000000000E+00
0.00000000000000E+00
0.00000000000000E+00
0.00000000000000E+00
0.00000000000000E+00
0.00000000000000E+00
0.00000000000000E+00
0.00000000000000E+00
0.00000000000000E+00
0.00000000000000E+00
0.00000000000000E+00
0.00000000000000E+00
0.00000000000000E+00
0.00000000000000E+00
0.00000000000000E+00
0.00000000000000E+00
0.00000000000000E+00
0.00000000000000E+00
0.00000000000000E+00
0.00000000000000E+00
0.00000000000000E+00
0.00000000000000E+00
0.00000000000000E+00
0.00000000000000E+00
0.00000000000000E+00
0.00000000000000E+00
0.00000000000000E+00
0.00000000000000E+00
0.00000000000000E+00
0.00000000000000E+00
0.00000000000000E+00
0.00000000000000E+00
0.00000000000000E+00
0.00000000000000E+00
0.00000000000000E+00
0.00000000000000E+00
0.00000000000000E+00
0.00000000000000E+00
0.00000000000000E+00
0.00000000000000E+00
0.00000000000000E+00
0.00000000000000E+00
0.00000000000000E+00
0.00000000000000E+00
0.00000000000000E+00
0.00000000000000E+00
0.00000000000000E+00
0.00000000000000E+00
0.00000000000000E+00
0.00000000000000E+00
0.00000000000000E+00
0.00000000000000E+00
0.00000000000000E+00
0.00000000000000E+00
0.00000000000000E+00
0.00000000000000E+00
0.00000000000000E+00
0.00000000000000E+00
0.00000000000000E+00
0.00000000000000E+00
0.00000000000000E+00
0.00000000000000E+00
0.00000000000000E+00
0.00000000000000E+00
0.00000000000000E+00
0.00000000000000E+00
0.00000000000000E+00
0.00000000000000E+00
0.00000000000000E+00
0.00000000000000E+00
0.00000000000000E+00
0.00000000000000E+00
0.00000000000000E+00
0.00000000000000E+00
0.00000000000000E+00
0.00000000000000E+00
0.00000000000000E+00
0.00000000000000E+00
0.00000000000000E+00
0.00000000000000E+00
0.00000000000000E+00
0.00000000000000E+00
0.00000000000000E+00
0.00000000000000E+00
0.00000000000000E+00
0.00000000000000E+00
0.00000000000000E+00
0.00000000000000E+00
0.00000000000000E+00
0.00000000000000E+00
0.00000000000000E+00
0.00000000000000E+00
0.00000000000000E+00
0.00000000000000E+00
0.00000000000000E+00
0.00000000000000E+00
0.00000000000000E+00
0.00000000000000E+00
0.00000000000000E+00
0.00000000000000E+00
0.00000000000000E+00
0.00000000000000E+00
0.00000000000000E+00
0.00000000000000E+00
0.00000000000000E+00
0.00000000000000E+00
0.00000000000000E+00
0.00000000000000E+00
0.00000000000000E+00
0.00000000000000E+00
0.00000000000000E+00
0.00000000000000E+00
0.00000000000000E+00
0.00000000000000E+00
0.00000000000000E+00
0.00000000000000E+00
0.00000000000000E+00
0.00000000000000E+00
0.00000000000000E+00
0.00000000000000E+00
0.00000000000000E+00
0.00000000000000E+00
0.00000000000000E+00
0.00000000000000E+00
0.00000000000000E+00
0.00000000000000E+00
0.00000000000000E+00
0.00000000000000E+00
0.00000000000000E+00
0.00000000000000E+00
0.00000000000000E+00
0.00000000000000E+00
0.00000000000000E+00
0.00000000000000E+00
0.00000000000000E+00
0.00000000000000E+00
0.00000000000000E+00
0.00000000000000E+00
0.00000000000000E+00
0.00000000000000E+00
0.00000000000000E+00
0.00000000000000E+00
0.00000000000000E+00
0.00000000000000E+00
0.00000000000000E+00
0.00000000000000E+00
0.00000000000000E+00
0.00000000000000E+00
0.00000000000000E+00
0.00000000000000E+00
0.00000000000000E+00
0.00000000000000E+00
0.00000000000000E+00
0.00000000000000E+00
0.00000000000000E+00
0.00000000000000E+00
0.00000000000000E+00
0.00000000000000E+00
0.00000000000000E+00
0.00000000000000E+00
0.00000000000000E+00
0.00000000000000E+00
0.00000000000000E+00
0.00000000000000E+00
0.00000000000000E+00
0.00000000000000E+00
0.00000000000000E+00
0.00000000000000E+00
0.00000000000000E+00
0.00000000000000E+00
0.00000000000000E+00
0.00000000000000E+00
0.00000000000000E+00
0.00000000000000E+00
0.00000000000000E+00
0.00000000000000E+00
0.00000000000000E+00
0.00000000000000E+00
0.00000000000000E+00
0.00000000000000E+00
0.00000000000000E+00
0.00000000000000E+00
0.00000000000000E+00
0.00000000000000E+00
0.00000000000000E+00
0.00000000000000E+00
0.00000000000000E+00
0.00000000000000E+00
0.00000000000000E+00
0.00000000000000E+00
0.00000000000000E+00
0.00000000000000E+00
0.00000000000000E+00
0.00000000000000E+00
0.00000000000000E+00
0.00000000000000E+00
0.00000000000000E+00
0.00000000000000E+00