# vtk DataFile Version 2.0
outputfile
ASCII
DATASET UNSTRUCTURED_GRID
POINTS 505 double
   0.0000000000000000        0.0000000000000000        0.0000000000000000     
   1.0000000000000000        0.0000000000000000        0.0000000000000000     
   1.0000000000000000        1.0000000000000000        0.0000000000000000     
   0.0000000000000000        1.0000000000000000        0.0000000000000000     
   4.9999999999899652E-002   0.0000000000000000        0.0000000000000000     
   9.9999999999814668E-002   0.0000000000000000        0.0000000000000000     
  0.14999999999970359        0.0000000000000000        0.0000000000000000     
  0.19999999999955789        0.0000000000000000        0.0000000000000000     
  0.24999999999941211        0.0000000000000000        0.0000000000000000     
  0.29999999999926641        0.0000000000000000        0.0000000000000000     
  0.34999999999912063        0.0000000000000000        0.0000000000000000     
  0.39999999999897490        0.0000000000000000        0.0000000000000000     
  0.44999999999882923        0.0000000000000000        0.0000000000000000     
  0.49999999999869432        0.0000000000000000        0.0000000000000000     
  0.54999999999881510        0.0000000000000000        0.0000000000000000     
  0.59999999999894682        0.0000000000000000        0.0000000000000000     
  0.64999999999907843        0.0000000000000000        0.0000000000000000     
  0.69999999999921003        0.0000000000000000        0.0000000000000000     
  0.74999999999934175        0.0000000000000000        0.0000000000000000     
  0.79999999999947335        0.0000000000000000        0.0000000000000000     
  0.84999999999960507        0.0000000000000000        0.0000000000000000     
  0.89999999999973679        0.0000000000000000        0.0000000000000000     
  0.94999999999986839        0.0000000000000000        0.0000000000000000     
   1.0000000000000000       0.94999999999979179        0.0000000000000000     
   1.0000000000000000       0.89999999999958358        0.0000000000000000     
   1.0000000000000000       0.84999999999965292        0.0000000000000000     
   1.0000000000000000       0.79999999999999982        0.0000000000000000     
   1.0000000000000000       0.75000000000034661        0.0000000000000000     
   1.0000000000000000       0.70000000000069340        0.0000000000000000     
   1.0000000000000000       0.65000000000104008        0.0000000000000000     
   1.0000000000000000       0.60000000000138687        0.0000000000000000     
   1.0000000000000000       0.55000000000173355        0.0000000000000000     
   1.0000000000000000       0.50000000000205869        0.0000000000000000     
   1.0000000000000000       0.45000000000187229        0.0000000000000000     
   1.0000000000000000       0.40000000000166441        0.0000000000000000     
   1.0000000000000000       0.35000000000145642        0.0000000000000000     
   1.0000000000000000       0.30000000000124832        0.0000000000000000     
   1.0000000000000000       0.25000000000104028        0.0000000000000000     
   1.0000000000000000       0.20000000000083221        0.0000000000000000     
   1.0000000000000000       0.15000000000062411        0.0000000000000000     
   1.0000000000000000       0.10000000000041601        0.0000000000000000     
   1.0000000000000000        5.0000000000207989E-002   0.0000000000000000     
  0.94999999999979179        1.0000000000000000        0.0000000000000000     
  0.89999999999958358        1.0000000000000000        0.0000000000000000     
  0.84999999999965292        1.0000000000000000        0.0000000000000000     
  0.79999999999999982        1.0000000000000000        0.0000000000000000     
  0.75000000000034661        1.0000000000000000        0.0000000000000000     
  0.70000000000069340        1.0000000000000000        0.0000000000000000     
  0.65000000000104008        1.0000000000000000        0.0000000000000000     
  0.60000000000138687        1.0000000000000000        0.0000000000000000     
  0.55000000000173355        1.0000000000000000        0.0000000000000000     
  0.50000000000205869        1.0000000000000000        0.0000000000000000     
  0.45000000000187229        1.0000000000000000        0.0000000000000000     
  0.40000000000166441        1.0000000000000000        0.0000000000000000     
  0.35000000000145642        1.0000000000000000        0.0000000000000000     
  0.30000000000124832        1.0000000000000000        0.0000000000000000     
  0.25000000000104028        1.0000000000000000        0.0000000000000000     
  0.20000000000083221        1.0000000000000000        0.0000000000000000     
  0.15000000000062411        1.0000000000000000        0.0000000000000000     
  0.10000000000041601        1.0000000000000000        0.0000000000000000     
   5.0000000000207989E-002   1.0000000000000000        0.0000000000000000     
   0.0000000000000000       0.94999999999979179        0.0000000000000000     
   0.0000000000000000       0.89999999999958358        0.0000000000000000     
   0.0000000000000000       0.84999999999965292        0.0000000000000000     
   0.0000000000000000       0.79999999999999982        0.0000000000000000     
   0.0000000000000000       0.75000000000034661        0.0000000000000000     
   0.0000000000000000       0.70000000000069340        0.0000000000000000     
   0.0000000000000000       0.65000000000104008        0.0000000000000000     
   0.0000000000000000       0.60000000000138687        0.0000000000000000     
   0.0000000000000000       0.55000000000173355        0.0000000000000000     
   0.0000000000000000       0.50000000000205869        0.0000000000000000     
   0.0000000000000000       0.45000000000187229        0.0000000000000000     
   0.0000000000000000       0.40000000000166441        0.0000000000000000     
   0.0000000000000000       0.35000000000145642        0.0000000000000000     
   0.0000000000000000       0.30000000000124832        0.0000000000000000     
   0.0000000000000000       0.25000000000104028        0.0000000000000000     
   0.0000000000000000       0.20000000000083221        0.0000000000000000     
   0.0000000000000000       0.15000000000062411        0.0000000000000000     
   0.0000000000000000       0.10000000000041601        0.0000000000000000     
   0.0000000000000000        5.0000000000207989E-002   0.0000000000000000     
  0.46314821656525579       0.95514899321372082        0.0000000000000000     
  0.95669472764970509       0.49443613635555428        0.0000000000000000     
   4.1738696614889138E-002  0.49622487473382298        0.0000000000000000     
  0.54920971604198476        4.4950339730122808E-002   0.0000000000000000     
  0.95889936649149554       0.69184950794362821        0.0000000000000000     
   5.6861288618538841E-002  0.65900873715181929        0.0000000000000000     
  0.33332087986118542        4.6016368748656888E-002   0.0000000000000000     
  0.65647019732163092       0.95389335645739159        0.0000000000000000     
  0.95654146838055898       0.29513435574510472        0.0000000000000000     
  0.31945108858884103       0.95517766022397010        0.0000000000000000     
   4.7413631872400698E-002  0.35076092107080797        0.0000000000000000     
  0.69884711980629155        4.5675398263482797E-002   0.0000000000000000     
  0.95841918113864466       0.80414829075456207        0.0000000000000000     
   4.5502662142809312E-002  0.81236207604135757        0.0000000000000000     
   4.0047346579859158E-002  0.17537438831828711        0.0000000000000000     
  0.83121004133248200        5.7869642935671838E-002   0.0000000000000000     
  0.81197320460865996       0.95138902290985849        0.0000000000000000     
  0.17237799469023410       0.95839828930153692        0.0000000000000000     
  0.18856030550540789        4.4080461895546597E-002   0.0000000000000000     
  0.95664155725027744       0.39490126831429212        0.0000000000000000     
  0.95599298886726092       0.19468028930078371        0.0000000000000000     
  0.43070456290092868        4.8960292873736613E-002   0.0000000000000000     
  0.95686315312463521       0.59416162347434842        0.0000000000000000     
  0.55817969127170897       0.95488330965780877        0.0000000000000000     
   4.0231631595507911E-002  0.57249019934004908        0.0000000000000000     
  0.95532792076162631       0.90239373875381634        0.0000000000000000     
   4.5509232118940632E-002  0.90842833645186383        0.0000000000000000     
   4.4159543747626637E-002   9.5347801344847563E-002   0.0000000000000000     
  0.95562669714357296        9.5063775978714404E-002   0.0000000000000000     
  0.95667039825492062       0.44486490482384061        0.0000000000000000     
  0.91327692772692304       0.44110576016520531        0.0000000000000000     
  0.91336332694246825       0.49093288487171860        0.0000000000000000     
  0.87002138712830401       0.48898812111076118        0.0000000000000000     
  0.87011065570671886       0.53874276980420832        0.0000000000000000     
  0.82669626373124794       0.48778294295447350        0.0000000000000000     
  0.82679051859409824       0.53766164560132312        0.0000000000000000     
  0.78347973782924507       0.53517994516123324        0.0000000000000000     
  0.78345635079588516       0.48503598183156299        0.0000000000000000     
  0.74033505129784960       0.47848626725353133        0.0000000000000000     
  0.74062309732149423       0.42891748737032881        0.0000000000000000     
  0.69715229030496406       0.46617916876982912        0.0000000000000000     
  0.69636076216365461       0.51608252074514616        0.0000000000000000     
  0.65157546415733147       0.50044659733728603        0.0000000000000000     
  0.65358619107106353       0.45068722973306408        0.0000000000000000     
  0.60737146179453183       0.48534440986149191        0.0000000000000000     
[...]
CELL_DATA 464

SCALARS blocks int 1
LOOKUP_TABLE default
0
1
2
3
4
5
6
7
8
9
10
11
12
13
14
15
16
17
18
19
20
21
22
23
24
25
26
27
28
29
30
31
32
33
34
35
36
37
38
39
40
41
42
43
44
45
46
47
48
49
50
51
52
53
54
55
56
57
58
59
60
61
62
63
64
65
66
67
68
69
70
71
72
73
74
75
76
77
78
79
80
81
82
83
84
85
86
87
88
89
90
91
92
93
94
95
96
97
98
99
100
101
102
103
104
105
106
107
108
109
110
111
112
113
114
115
116
117
118
119
120
121
122
123
124
125
126
127
128
129
130
131
132
133
134
135
136
137
138
139
140
141
142
143
144
145
146
147
148
149
150
151
152
153
154
155
156
157
158
159
160
161
162
163
164
165
166
167
168
169
170
171
172
173
174
175
176
177
178
179
180
181
182
183
184
185
186
187
188
189
190
191
192
193
194
195
196
197
198
199
200
201
202
203
204
205
206
207
208
209
210
211
212
213
214
215
216
217
218
219
220
221
222
223
224
225
226
227
228
229
230
231
232
233
234
235
236
237
238
239
240
241
242
243
244
245
246
247
248
249
250
251
252
253
254
255
256
257
258
259
260
261
262
263
264
265
266
267
268
269
270
271
272
273
274
275
276
277
278
279
280
281
282
283
284
285
286
287
288
289
290
291
292
293
294
295
296
297
298
299
300
301
302
303
304
305
306
307
308
309
310
311
312
313
314
315
316
317
318
319
320
321
322
323
324
325
326
327
328
329
330
331
332
333
334
335
336
337
338
339
340
341
342
343
344
345
346
347
348
349
350
351
352
353
354
355
356
357
358
359
360
361
362
363
364
365
366
367
368
369
370
371
372
373
374
375
376
377
378
379
380
381
382
383
384
385
386
387
388
389
390
391
392
393
394
395
396
397
398
399
400
401
402
403
404
405
406
407
408
409
410
411
412
413
414
415
416
417
418
419
420
421
422
423
424
425
426
427
428
429
430
431
432
433
434
435
436
437
438
439
440
441
442
443
444
445
446
447
448
449
450
451
452
453
454
455
456
457
458
459
460
461
462
463

SCALARS material int 1
LOOKUP_TABLE default
1
1
1
1
1
1
1
1
1
1
1
1
1
1
1
1
1
1
1
1
1
1
1
1
1
1
1
1
1
1
1
1
1
1
1
1
1
1
1
1
1
1
1
1
1
1
1
1
1
1
1
1
1
1
1
1
1
1
1
1
1
1
1
1
1
1
1
1
1
1
1
1
1
1
1
1
1
1
1
1
1
1
1
1
1
1
1
1
1
1
1
1
1
1
1
1
1
1
1
1
1
1
1
1
1
1
1
1
1
1
1
1
1
1
1
1
1
1
1
1
1
1
1
1
1
1
1
1
1
1
1
1
1
1
1
1
1
1
1
1
1
1
1
1
1
1
1
1
1
1
1
1
1
1
1
1
1
1
1
1
1
1
1
1
1
1
1
1
1
1
1
1
1
1
1
1
1
1
1
1
1
1
1
1
1
1
1
1
1
1
1
1
1
1
1
1
1
1
1
1
1
1
1
1
1
1
1
1
1
1
1
1
1
1
1
1
1
1
1
1
1
1
1
1
1
1
1
1
1
1
1
1
1
1
1
1
1
1
1
1
1
1
1
1
1
1
1
1
1
1
1
1
1
1
1
1
1
1
1
1
1
1
1
1
1
1
1
1
1
1
1
1
1
1
1
1
1
1
1
1
1
1
1
1
1
1
1
1
1
1
1
1
1
1
1
1
1
1
1
1
1
1
1
1
1
1
1
1
1
1
1
1
1
1
1
1
1
1
1
1
1
1
1
1
1
1
1
1
1
1
1
1
1
1
1
1
1
1
1
1
1
1
1
1
1
1
1
1
1
1
1
1
1
1
1
1
1
1
1
1
1
1
1
1
1
1
1
1
1
1
1
1
1
1
1
1
1
1
1
1
1
1
1
1
1
1
1
1
1
1
1
1
1
1
1
1
1
1
1
1
1
1
1
1
1
1
1
1
1
1
1
1
1
1
1
1
1
1
1
1
1
1
1
1
1
1
1
1
1
1
1
1
1
1
1
1
1
1
1
1
1
1
1
1
1
1
1
1
1
1
1
1
1
1
1
1
1
1
1
1
1
1
1
1

POINT_DATA 505
SCALARS scalar_flux_1 double 1
LOOKUP_TABLE default
2.52300204814775E-01
2.52284602003095E-01
2.52324122019868E-01
2.52299678444955E-01
2.69882306609208E-01
2.84951126277568E-01
2.97752264502867E-01
3.08485667853928E-01
3.17320757121665E-01
3.24378505347674E-01
3.29771217990889E-01
3.33579726592507E-01
3.35895400279455E-01
3.36728766376804E-01
3.35910661504839E-01
3.33591260067296E-01
3.29792526853463E-01
3.24405813645363E-01
3.17332842477953E-01
3.08475746274165E-01
2.98058088773514E-01
2.84848607937268E-01
2.69859291108928E-01
2.69902831068702E-01
2.84966903490926E-01
2.97758548386993E-01
3.08423527420226E-01
3.17525920297111E-01
3.24337882671181E-01
3.29764324654137E-01
3.33552806590971E-01
3.35808810430574E-01
3.36556762997678E-01
3.35810136174452E-01
3.33556826201169E-01
3.29764753513854E-01
3.24379242776027E-01
3.17323570103971E-01
3.08493603991387E-01
2.97756221953583E-01
2.84948479997112E-01
2.69871593921986E-01
2.69906419395007E-01
2.84976242158180E-01
2.97783396381008E-01
3.08530517025311E-01
3.17403710200689E-01
3.24430439214193E-01
3.29836670673360E-01
3.33551569089162E-01
3.35798161766043E-01
3.36546868534060E-01
3.35795289774105E-01
3.33547553491974E-01
3.29762252596190E-01
3.24377645572766E-01
3.17349653378233E-01
3.08561616289041E-01
2.98063957675886E-01
2.84891196373982E-01
2.69884352403624E-01
2.69884633006173E-01
2.84950185103893E-01
2.97745292250552E-01
3.08469399248537E-01
3.17293522621702E-01
3.24394798124865E-01
3.29834167459122E-01
3.33503117257275E-01
3.35979369263712E-01
3.36475900448603E-01
3.35792354436910E-01
3.33563829756835E-01
3.29793968880862E-01
3.24407528991132E-01
3.17292291071188E-01
3.08708011149798E-01
2.97664709437161E-01
2.84940546361616E-01
2.69878624021684E-01
3.57394161263002E-01
3.57133469646310E-01
3.56434044465131E-01
3.57147659920174E-01
3.44309565628564E-01
3.54953229302274E-01
3.49403253064265E-01
3.50467274067447E-01
3.43621746623527E-01
3.47297027205023E-01
3.51830714709693E-01
3.45417368916160E-01
3.25769659638116E-01
3.25579946211056E-01
3.20465132593568E-01
3.26091163753902E-01
3.26974552375563E-01
3.20418061947062E-01
3.25221176299931E-01
3.53645251183182E-01
3.26504140190041E-01
3.58153110201418E-01
3.54240199341162E-01
3.56867007323480E-01
3.53899369696488E-01
3.02155435930998E-01
3.00637748325686E-01
3.01260028208108E-01
3.01260410847816E-01
3.56189512742165E-01
3.74182363822050E-01
3.75281240200668E-01
3.91166496037093E-01
3.90652998662706E-01
4.04927729326622E-01
4.04441169299327E-01
4.16277353288857E-01
4.16659208569046E-01
4.26430263875307E-01
4.24579283343767E-01
4.34268454901967E-01
4.34760583254358E-01
4.41461555902124E-01
4.40215249203116E-01
4.46143805374674E-01
4.46679161752794E-01
4.49048673827172E-01
4.48943242613375E-01
4.50564637548828E-01
4.50113304848083E-01
4.50933668853711E-01
4.49947321530782E-01
4.49670484830926E-01
4.49544623444263E-01
4.48238979217580E-01
4.45828840435761E-01
4.44537304179450E-01
4.45002116042124E-01
4.40117304207751E-01
4.38630964975728E-01
4.32255579296052E-01
4.30642187783134E-01
4.27675953268198E-01
4.40491610433464E-01
4.32844074526092E-01
4.31951703001344E-01
4.21718923690705E-01
4.18660332756117E-01
4.17412115778719E-01
4.23229020025749E-01
4.46417086351888E-01
4.41694283748613E-01
4.41013338860408E-01
4.35366671296888E-01
4.34668589911053E-01
4.26638975664687E-01
4.27338135541654E-01
4.31704272431107E-01
4.23523996430532E-01
4.26310736063027E-01
4.17591543050923E-01
4.18560334369368E-01
4.07025548915662E-01
4.08948558719214E-01
4.16584311778273E-01
4.14048800305903E-01
4.15224334252794E-01
4.21171402206158E-01
4.12383038474784E-01
4.17839298397030E-01
4.08898929334916E-01
4.12886909866198E-01
4.21151953241991E-01
4.15213030232312E-01
4.23968175427275E-01
4.15572614595253E-01
4.24074964862995E-01
4.02751619082205E-01
3.98955662968814E-01
4.13605093669088E-01
3.94488369195336E-01
4.12996219089697E-01
4.28260814120477E-01
4.04424515218167E-01
4.12900628509648E-01
4.22557052885038E-01
4.13128299889050E-01
4.07248595456315E-01
4.23239154823482E-01
4.15344209211131E-01
4.04796471185805E-01
4.06030340227032E-01
4.17145215717655E-01
4.09189494725937E-01
3.99445447352769E-01
3.89490888822831E-01
3.98815346499970E-01
4.17466585225043E-01
3.95326234728393E-01
3.84734055143110E-01
4.04759947824403E-01
4.21409198594804E-01
4.30810601432730E-01
3.88635247961719E-01
3.78011411472013E-01
4.17541675028766E-01
4.08779979208690E-01
4.09024866591494E-01
4.02180711534043E-01
4.37113914535457E-01
4.15943943474405E-01
3.86149582029079E-01
3.90966490588092E-01
4.05480833229884E-01
3.78725715010884E-01
3.88768784609580E-01
3.88184239598074E-01
3.87426047632256E-01
3.67737024034825E-01
3.71111375821845E-01
3.91883647637925E-01
3.72878106347857E-01
3.83627859381823E-01
4.14338024049647E-01
4.40262614663585E-01
4.39498914986659E-01
3.95809404588416E-01
3.87831567100462E-01
4.31383065531053E-01
4.39601742632275E-01
3.67230790206902E-01
3.65501649441244E-01
3.66716704578817E-01
3.59453100280625E-01
3.58961432396409E-01
3.69193490964110E-01
4.33147771302541E-01
4.25861848511073E-01
4.31607429094564E-01
4.03898583633606E-01
3.91876892163516E-01
3.77716024771717E-01
4.43393568505450E-01
3.89627737532924E-01
3.94152190624589E-01
4.04844968957962E-01
4.45672147476950E-01
4.00570908979784E-01
3.89641448363015E-01
4.07671264819091E-01
3.82260544291699E-01
3.75322533926867E-01
3.77750990724886E-01
3.66452774908473E-01
3.66700525782900E-01
3.56153820896267E-01
3.57795345107378E-01
3.73219509952290E-01
3.59311254990082E-01
3.77054778142508E-01
3.44039761719089E-01
3.78130724357865E-01
3.73530064204674E-01
3.89297635181073E-01
3.85694042932170E-01
3.77205927908183E-01
3.72853047172973E-01
3.92584140992947E-01
3.94179830328738E-01
3.72083880649632E-01
3.96676478384338E-01
3.96481651887021E-01
3.57824121062350E-01
3.80516083050030E-01
3.49408382820514E-01
4.06196049025326E-01
4.09958743967870E-01
4.24359439157625E-01
3.88338437808141E-01
3.90008042232733E-01
4.45490841336748E-01
4.40978906415740E-01
4.10774483549623E-01
4.23410776426440E-01
3.54923245085276E-01
3.54174558264857E-01
3.42150137086885E-01
3.59832361844517E-01
3.28582579284289E-01
3.53115163291977E-01
3.84593183738914E-01
3.93910582313122E-01
3.50935204751691E-01
3.76848258187264E-01
3.94508304042659E-01
3.77206412852839E-01
3.76077141302959E-01
3.93464727560174E-01
3.90481421376880E-01
3.44033977058160E-01
3.31708257418983E-01
3.55248320015511E-01
3.66331145744515E-01
3.43849344423825E-01
3.44362257156504E-01
3.38356264542485E-01
3.82211141472361E-01
3.77198838910162E-01
3.85317914053543E-01
3.74725952722414E-01
3.55545747947714E-01
3.52166668857047E-01
3.56472499232301E-01
3.74865086802188E-01
3.74338894747660E-01
3.74030341716208E-01
3.89466310588103E-01
3.42657351085932E-01
3.55265725909512E-01
3.55073987703588E-01
3.90975750513344E-01
3.15415698649079E-01
3.31373178750681E-01
3.49504469297601E-01
3.53992795266989E-01
3.50287217465091E-01
3.71712441016875E-01
3.68341774431854E-01
3.87340694408129E-01
3.90732152768498E-01
4.20428366021011E-01
4.29537271835150E-01
3.63326649023003E-01
4.46380965733989E-01
4.40440486931876E-01
3.41368006129689E-01
3.62307858384942E-01
3.35064556631680E-01
4.09375402393472E-01
3.56491818199953E-01
3.72439935010486E-01
4.47257015416903E-01
4.40750796578415E-01
3.71450226719289E-01
3.13403260329106E-01
3.16010702087312E-01
3.01416221461704E-01
3.29253087313606E-01
3.43036115483173E-01
3.40732921973397E-01
3.50835190306016E-01
3.65502807568987E-01
3.59831513650813E-01
3.98029477991484E-01
3.84152203616034E-01
3.78778108401735E-01
3.07868897193136E-01
4.27356111221071E-01
4.25850991904339E-01
3.28792698653526E-01
4.31046936187634E-01
4.24817081434706E-01
3.36054140674937E-01
4.20384506351899E-01
4.23667650258032E-01
4.31256008044474E-01
4.37067234604195E-01
3.14932678906709E-01
4.45720031078486E-01
4.44794981704847E-01
4.48167122040679E-01
4.08739515182073E-01
3.88345089824273E-01
4.22100723374823E-01
3.54414126038088E-01
3.77580355280842E-01
4.37033456876909E-01
4.35643235214206E-01
4.34676056121743E-01
3.46494853810793E-01
3.31644869275598E-01
4.33924340378287E-01
4.16693368081448E-01
3.43166884794099E-01
3.77668162295755E-01
4.40555898298329E-01
3.61565146158732E-01
3.68170858196550E-01
3.85451211032655E-01
3.50096511996642E-01
3.54511502835525E-01
3.69019137426724E-01
3.53747664155452E-01
4.09815082628840E-01
3.08265236985164E-01
3.95594524434146E-01
3.96829471913080E-01
4.22289427831052E-01
4.11046238253787E-01
4.26388299120707E-01
4.48570555751180E-01
4.16649741277461E-01
3.97211479628206E-01
4.03921519534910E-01
4.30389987207929E-01
4.07662077881802E-01
4.41422553875542E-01
3.98878690912913E-01
4.33262820936934E-01
4.31738768750160E-01
4.48150898568541E-01
3.44140723354072E-01
3.83204946335501E-01
3.94832785715017E-01
4.42233411192603E-01
4.03719323317142E-01
4.38150929495509E-01
3.97222051146744E-01
3.55504002621334E-01
3.64829810645142E-01
4.36720678015227E-01
3.55529190446882E-01
4.36468548878581E-01
3.85815551483267E-01
3.38521347800231E-01
3.79983363062979E-01
4.28618935592893E-01
3.99555241793629E-01
4.11975958289561E-01
4.05777677258564E-01
4.44452919326879E-01
3.94504429301683E-01
4.00933557629003E-01
3.14769967228065E-01
3.17855653462810E-01
4.49105666982339E-01
4.45510496216495E-01
4.42766634981717E-01
4.33020402493678E-01
4.37741003863168E-01
4.33108866086635E-01
3.87162237756156E-01
4.22966237306361E-01
4.20942970196570E-01
4.08490078380591E-01
3.02349995869519E-01
3.66959733004875E-01
3.60619061965532E-01
3.52476098331682E-01
3.42515287430087E-01
3.29916332367368E-01
4.00051620885951E-01
4.05588341026893E-01
4.01331416738713E-01
3.70521009298847E-01
3.69067613411212E-01
3.69129991594076E-01
3.44475608716980E-01
3.35606039623879E-01
3.90870105614853E-01
3.40880689507139E-01
3.14232774837784E-01
4.02169192562844E-01
3.74866832128009E-01
3.36816184711810E-01
3.75125867795584E-01
3.14493085681456E-01
3.67316804008710E-01
2.99734415361765E-01
3.64249868964984E-01
3.73233106579976E-01
3.67760724216105E-01
3.65397006910055E-01
2.99643293272193E-01
3.73451894091498E-01
3.97868160558930E-01
3.75258495081994E-01
3.81660661954729E-01
3.57752309269756E-01
3.15860873636793E-01
3.14510950827291E-01
3.58026598038668E-01
3.23012397856163E-01
3.43603149155827E-01
3.35229601562034E-01
3.37521948953386E-01
3.30508173969553E-01
3.75146645222251E-01
3.78450974584689E-01
2.87289919764088E-01
2.86823314405339E-01
2.86426827946236E-01
3.29458799382511E-01
3.69253674889504E-01
3.90918942910801E-01
3.63739680605854E-01
3.45544553217925E-01
2.86235850345067E-01
3.55275758928377E-01
3.38128003741865E-01
3.87983990677086E-01
3.76634695106555E-01
4.05310780049377E-01
3.84397470951103E-01
3.26638372329084E-01
