# vtk DataFile Version 2.0
outputfile
ASCII
DATASET UNSTRUCTURED_GRID
POINTS 1000 double
   0.0000000000000000        0.0000000000000000        0.0000000000000000     
   1.0000000000000000        0.0000000000000000        0.0000000000000000     
   1.0000000000000000        1.0000000000000000        0.0000000000000000     
   0.0000000000000000        1.0000000000000000        0.0000000000000000     
   0.0000000000000000        0.0000000000000000        1.0000000000000000     
   1.0000000000000000        0.0000000000000000        1.0000000000000000     
   1.0000000000000000        1.0000000000000000        1.0000000000000000     
   0.0000000000000000        1.0000000000000000        1.0000000000000000     
  0.11111111111090820        0.0000000000000000        0.0000000000000000     
  0.22222222222171431        0.0000000000000000        0.0000000000000000     
  0.33333333333250098        0.0000000000000000        0.0000000000000000     
  0.44444444444328779        0.0000000000000000        0.0000000000000000     
  0.55555555555438330        0.0000000000000000        0.0000000000000000     
  0.66666666666578744        0.0000000000000000        0.0000000000000000     
  0.77777777777719159        0.0000000000000000        0.0000000000000000     
  0.88888888888859585        0.0000000000000000        0.0000000000000000     
   1.0000000000000000       0.11111111111090820        0.0000000000000000     
   1.0000000000000000       0.22222222222171431        0.0000000000000000     
   1.0000000000000000       0.33333333333250098        0.0000000000000000     
   1.0000000000000000       0.44444444444328779        0.0000000000000000     
   1.0000000000000000       0.55555555555438330        0.0000000000000000     
   1.0000000000000000       0.66666666666578744        0.0000000000000000     
   1.0000000000000000       0.77777777777719159        0.0000000000000000     
   1.0000000000000000       0.88888888888859585        0.0000000000000000     
  0.88888888888842621        1.0000000000000000        0.0000000000000000     
  0.77777777777793200        1.0000000000000000        0.0000000000000000     
  0.66666666666759178        1.0000000000000000        0.0000000000000000     
  0.55555555555725133        1.0000000000000000        0.0000000000000000     
  0.44444444444629427        1.0000000000000000        0.0000000000000000     
  0.33333333333472071        1.0000000000000000        0.0000000000000000     
  0.22222222222314711        1.0000000000000000        0.0000000000000000     
  0.11111111111157360        1.0000000000000000        0.0000000000000000     
   0.0000000000000000       0.88888888888842621        0.0000000000000000     
   0.0000000000000000       0.77777777777793200        0.0000000000000000     
   0.0000000000000000       0.66666666666759178        0.0000000000000000     
   0.0000000000000000       0.55555555555725133        0.0000000000000000     
   0.0000000000000000       0.44444444444629427        0.0000000000000000     
   0.0000000000000000       0.33333333333472071        0.0000000000000000     
   0.0000000000000000       0.22222222222314711        0.0000000000000000     
   0.0000000000000000       0.11111111111157360        0.0000000000000000     
  0.11111111111090820        0.0000000000000000        1.0000000000000000     
  0.22222222222171431        0.0000000000000000        1.0000000000000000     
  0.33333333333250098        0.0000000000000000        1.0000000000000000     
  0.44444444444328779        0.0000000000000000        1.0000000000000000     
  0.55555555555438330        0.0000000000000000        1.0000000000000000     
  0.66666666666578744        0.0000000000000000        1.0000000000000000     
  0.77777777777719159        0.0000000000000000        1.0000000000000000     
  0.88888888888859585        0.0000000000000000        1.0000000000000000     
   1.0000000000000000       0.11111111111090820        1.0000000000000000     
   1.0000000000000000       0.22222222222171431        1.0000000000000000     
   1.0000000000000000       0.33333333333250098        1.0000000000000000     
   1.0000000000000000       0.44444444444328779        1.0000000000000000     
   1.0000000000000000       0.55555555555438330        1.0000000000000000     
   1.0000000000000000       0.66666666666578744        1.0000000000000000     
   1.0000000000000000       0.77777777777719159        1.0000000000000000     
   1.0000000000000000       0.88888888888859585        1.0000000000000000     
  0.88888888888842621        1.0000000000000000        1.0000000000000000     
  0.77777777777793200        1.0000000000000000        1.0000000000000000     
  0.66666666666759178        1.0000000000000000        1.0000000000000000     
  0.55555555555725133        1.0000000000000000        1.0000000000000000     
  0.44444444444629427        1.0000000000000000        1.0000000000000000     
  0.33333333333472071        1.0000000000000000        1.0000000000000000     
  0.22222222222314711        1.0000000000000000        1.0000000000000000     
  0.11111111111157360        1.0000000000000000        1.0000000000000000     
   0.0000000000000000       0.88888888888842621        1.0000000000000000     
   0.0000000000000000       0.77777777777793200        1.0000000000000000     
   0.0000000000000000       0.66666666666759178        1.0000000000000000     
   0.0000000000000000       0.55555555555725133        1.0000000000000000     
   0.0000000000000000       0.44444444444629427        1.0000000000000000     
   0.0000000000000000       0.33333333333472071        1.0000000000000000     
   0.0000000000000000       0.22222222222314711        1.0000000000000000     
   0.0000000000000000       0.11111111111157360        1.0000000000000000     
   0.0000000000000000        0.0000000000000000       0.11111111111090820     
   0.0000000000000000        0.0000000000000000       0.22222222222171431     
   0.0000000000000000        0.0000000000000000       0.33333333333250098     
   0.0000000000000000        0.0000000000000000       0.44444444444328779     
   0.0000000000000000        0.0000000000000000       0.55555555555438330     
   0.0000000000000000        0.0000000000000000       0.66666666666578744     
   0.0000000000000000        0.0000000000000000       0.77777777777719159     
   0.0000000000000000        0.0000000000000000       0.88888888888859585     
   1.0000000000000000        0.0000000000000000       0.11111111111090820     
   1.0000000000000000        0.0000000000000000       0.22222222222171431     
   1.0000000000000000        0.0000000000000000       0.33333333333250098     
   1.0000000000000000        0.0000000000000000       0.44444444444328779     
   1.0000000000000000        0.0000000000000000       0.55555555555438330     
   1.0000000000000000        0.0000000000000000       0.66666666666578744     
   1.0000000000000000        0.0000000000000000       0.77777777777719159     
   1.0000000000000000        0.0000000000000000       0.88888888888859585     
   1.0000000000000000        1.0000000000000000       0.11111111111090820     
   1.0000000000000000        1.0000000000000000       0.22222222222171431     
   1.0000000000000000        1.0000000000000000       0.33333333333250098     
   1.0000000000000000        1.0000000000000000       0.44444444444328779     
   1.0000000000000000        1.0000000000000000       0.55555555555438330     
   1.0000000000000000        1.0000000000000000       0.66666666666578744     
   1.0000000000000000        1.0000000000000000       0.77777777777719159     
   1.0000000000000000        1.0000000000000000       0.88888888888859585     
   0.0000000000000000        1.0000000000000000       0.11111111111090820     
   0.0000000000000000        1.0000000000000000       0.22222222222171431     
   0.0000000000000000        1.0000000000000000       0.33333333333250098     
   0.0000000000000000        1.0000000000000000       0.44444444444328779     
   0.0000000000000000        1.0000000000000000       0.55555555555438330     
   0.0000000000000000        1.0000000000000000       0.66666666666578744     
   0.0000000000000000        1.0000000000000000       0.77777777777719159     
   0.0000000000000000        1.0000000000000000       0.88888888888859585     
  0.11111111111098219       0.11111111111149970        0.0000000000000000     
  0.11111111111105609       0.22222222222298790        0.0000000000000000     
  0.11111111111113001       0.33333333333447412        0.0000000000000000     
  0.11111111111120391       0.44444444444596032        0.0000000000000000     
  0.11111111111127790       0.55555555555693259        0.0000000000000000     
  0.11111111111135180       0.66666666666739127        0.0000000000000000     
  0.11111111111142570       0.77777777777784951        0.0000000000000000     
  0.11111111111149960       0.88888888888844497        0.0000000000000000     
  0.22222222222187349       0.11111111111142570        0.0000000000000000     
  0.22222222222203261       0.22222222222282870        0.0000000000000000     
  0.22222222222219190       0.33333333333422738        0.0000000000000000     
  0.22222222222235111       0.44444444444562609        0.0000000000000000     
  0.22222222222251031       0.55555555555661418        0.0000000000000000     
  0.22222222222266949       0.66666666666719077        0.0000000000000000     
  0.22222222222282870       0.77777777777776747        0.0000000000000000     
  0.22222222222298790       0.88888888888846407        0.0000000000000000     
  0.33333333333274778       0.11111111111135180        0.0000000000000000     
  0.33333333333299442       0.22222222222266949        0.0000000000000000     
  0.33333333333324089       0.33333333333398091        0.0000000000000000     
  0.33333333333348752       0.44444444444529219        0.0000000000000000     
  0.33333333333373422       0.55555555555629532        0.0000000000000000     
[...]
CELL_DATA 729

SCALARS blocks int 1
LOOKUP_TABLE default
0
1
2
3
4
5
6
7
8
9
10
11
12
13
14
15
16
17
18
19
20
21
22
23
24
25
26
27
28
29
30
31
32
33
34
35
36
37
38
39
40
41
42
43
44
45
46
47
48
49
50
51
52
53
54
55
56
57
58
59
60
61
62
63
64
65
66
67
68
69
70
71
72
73
74
75
76
77
78
79
80
81
82
83
84
85
86
87
88
89
90
91
92
93
94
95
96
97
98
99
100
101
102
103
104
105
106
107
108
109
110
111
112
113
114
115
116
117
118
119
120
121
122
123
124
125
126
127
128
129
130
131
132
133
134
135
136
137
138
139
140
141
142
143
144
145
146
147
148
149
150
151
152
153
154
155
156
157
158
159
160
161
162
163
164
165
166
167
168
169
170
171
172
173
174
175
176
177
178
179
180
181
182
183
184
185
186
187
188
189
190
191
192
193
194
195
196
197
198
199
200
201
202
203
204
205
206
207
208
209
210
211
212
213
214
215
216
217
218
219
220
221
222
223
224
225
226
227
228
229
230
231
232
233
234
235
236
237
238
239
240
241
242
243
244
245
246
247
248
249
250
251
252
253
254
255
256
257
258
259
260
261
262
263
264
265
266
267
268
269
270
271
272
273
274
275
276
277
278
279
280
281
282
283
284
285
286
287
288
289
290
291
292
293
294
295
296
297
298
299
300
301
302
303
304
305
306
307
308
309
310
311
312
313
314
315
316
317
318
319
320
321
322
323
324
325
326
327
328
329
330
331
332
333
334
335
336
337
338
339
340
341
342
343
344
345
346
347
348
349
350
351
352
353
354
355
356
357
358
359
360
361
362
363
364
365
366
367
368
369
370
371
372
373
374
375
376
377
378
379
380
381
382
383
384
385
386
387
388
389
390
391
392
393
394
395
396
397
398
399
400
401
402
403
404
405
406
407
408
409
410
411
412
413
414
415
416
417
418
419
420
421
422
423
424
425
426
427
428
429
430
431
432
433
434
435
436
437
438
439
440
441
442
443
444
445
446
447
448
449
450
451
452
453
454
455
456
457
458
459
460
461
462
463
464
465
466
467
468
469
470
471
472
473
474
475
476
477
478
479
480
481
482
483
484
485
486
487
488
489
490
491
492
493
494
495
496
497
498
499
500
501
502
503
504
505
506
507
508
509
510
511
512
513
514
515
516
517
518
519
520
521
522
523
524
525
526
527
528
529
530
531
532
533
534
535
536
537
538
539
540
541
542
543
544
545
546
547
548
549
550
551
552
553
554
555
556
557
558
559
560
561
562
563
564
565
566
567
568
569
570
571
572
573
574
575
576
577
578
579
580
581
582
583
584
585
586
587
588
589
590
591
592
593
594
595
596
597
598
599
600
601
602
603
604
605
606
607
608
609
610
611
612
613
614
615
616
617
618
619
620
621
622
623
624
625
626
627
628
629
630
631
632
633
634
635
636
637
638
639
640
641
642
643
644
645
646
647
648
649
650
651
652
653
654
655
656
657
658
659
660
661
662
663
664
665
666
667
668
669
670
671
672
673
674
675
676
677
678
679
680
681
682
683
684
685
686
687
688
689
690
691
692
693
694
695
696
697
698
699
700
701
702
703
704
705
706
707
708
709
710
711
712
713
714
715
716
717
718
719
720
721
722
723
724
725
726
727
728

SCALARS material int 1
LOOKUP_TABLE default
1
1
1
1
1
1
1
1
1
1
1
1
1
1
1
1
1
1
1
1
1
1
1
1
1
1
1
1
1
1
1
1
1
1
1
1
1
1
1
1
1
1
1
1
1
1
1
1
1
1
1
1
1
1
1
1
1
1
1
1
1
1
1
1
1
1
1
1
1
1
1
1
1
1
1
1
1
1
1
1
1
1
1
1
1
1
1
1
1
1
1
1
1
1
1
1
1
1
1
1
1
1
1
1
1
1
1
1
1
1
1
1
1
1
1
1
1
1
1
1
1
1
1
1
1
1
1
1
1
1
1
1
1
1
1
1
1
1
1
1
1
1
1
1
1
1
1
1
1
1
1
1
1
1
1
1
1
1
1
1
1
1
1
1
1
1
1
1
1
1
1
1
1
1
1
1
1
1
1
1
1
1
1
1
1
1
1
1
1
1
1
1
1
1
1
1
1
1
1
1
1
1
1
1
1
1
1
1
1
1
1
1
1
1
1
1
1
1
1
1
1
1
1
1
1
1
1
1
1
1
1
1
1
1
1
1
1
1
1
1
1
1
1
1
1
1
1
1
1
1
1
1
1
1
1
1
1
1
1
1
1
1
1
1
1
1
1
1
1
1
1
1
1
1
1
1
1
1
1
1
1
1
1
1
1
1
1
1
1
1
1
1
1
1
1
1
1
1
1
1
1
1
1
1
1
1
1
1
1
1
1
1
1
1
1
1
1
1
1
1
1
1
1
1
1
1
1
1
1
1
1
1
1
1
1
1
1
1
1
1
1
1
1
1
1
1
1
1
1
1
1
1
1
1
1
1
1
1
1
1
1
1
1
1
1
1
1
1
1
1
1
1
1
1
1
1
1
1
1
1
1
1
1
1
1
1
1
1
1
1
1
1
1
1
1
1
1
1
1
1
1
1
1
1
1
1
1
1
1
1
1
1
1
1
1
1
1
1
1
1
1
1
1
1
1
1
1
1
1
1
1
1
1
1
1
1
1
1
1
1
1
1
1
1
1
1
1
1
1
1
1
1
1
1
1
1
1
1
1
1
1
1
1
1
1
1
1
1
1
1
1
1
1
1
1
1
1
1
1
1
1
1
1
1
1
1
1
1
1
1
1
1
1
1
1
1
1
1
1
1
1
1
1
1
1
1
1
1
1
1
1
1
1
1
1
1
1
1
1
1
1
1
1
1
1
1
1
1
1
1
1
1
1
1
1
1
1
1
1
1
1
1
1
1
1
1
1
1
1
1
1
1
1
1
1
1
1
1
1
1
1
1
1
1
1
1
1
1
1
1
1
1
1
1
1
1
1
1
1
1
1
1
1
1
1
1
1
1
1
1
1
1
1
1
1
1
1
1
1
1
1
1
1
1
1
1
1
1
1
1
1
1
1
1
1
1
1
1
1
1
1
1
1
1
1
1
1
1
1
1
1
1
1
1
1
1
1
1
1
1
1
1
1
1
1
1
1
1
1
1
1
1
1
1
1
1
1
1
1
1
1
1
1
1
1
1
1
1
1
1
1
1
1
1
1
1
1
1
1
1
1
1
1
1
1
1
1
1
1
1
1
1
1
1
1
1
1
1
1
1
1
1
1
1
1
1
1
1
1
1
1
1
1
1
1
1
1
1
1
1
1
1
1
1
1
1
1
1
1

POINT_DATA 1000
SCALARS scalar_flux_1 double 1
LOOKUP_TABLE default
1.48554863621604E-01
1.48554863077861E-01
1.48554863540654E-01
1.48554863648460E-01
1.48554863703023E-01
1.48554863299303E-01
1.48554863034140E-01
1.48554863486211E-01
1.71015930901016E-01
1.88464397633140E-01
2.00388836633217E-01
2.06439734138890E-01
2.06439734061693E-01
2.00388836358496E-01
1.88464397151954E-01
1.71015930404756E-01
1.71015930254846E-01
1.88464397296538E-01
2.00388836576015E-01
2.06439734348452E-01
2.06439734370750E-01
2.00388836764106E-01
1.88464397678173E-01
1.71015930905992E-01
1.71015930661451E-01
1.88464397385869E-01
2.00388836288848E-01
2.06439733923473E-01
2.06439734093924E-01
2.00388836665875E-01
1.88464397700573E-01
1.71015931012251E-01
1.71015930940983E-01
1.88464397753891E-01
2.00388836766283E-01
2.06439734263997E-01
2.06439734184723E-01
2.00388836616108E-01
1.88464397629014E-01
1.71015930920607E-01
1.71015931028526E-01
1.88464397771104E-01
2.00388836781764E-01
2.06439734249144E-01
2.06439734112729E-01
2.00388836410483E-01
1.88464397298296E-01
1.71015930646344E-01
1.71015930507877E-01
1.88464397432846E-01
2.00388836514573E-01
2.06439734244797E-01
2.06439734391508E-01
2.00388836778859E-01
1.88464397432837E-01
1.71015930441963E-01
1.71015930147375E-01
1.88464397001687E-01
2.00388836093767E-01
2.06439733826219E-01
2.06439733962098E-01
2.00388836489618E-01
1.88464397503284E-01
1.71015930852865E-01
1.71015930791097E-01
1.88464397597563E-01
2.00388836653319E-01
2.06439734232315E-01
2.06439734226944E-01
2.00388836714297E-01
1.88464397738431E-01
1.71015931053166E-01
1.71015930698769E-01
1.88464397605154E-01
2.00388836472577E-01
2.06439734121594E-01
2.06439734141913E-01
2.00388836633578E-01
1.88464397714934E-01
1.71015930861018E-01
1.71015930145184E-01
1.88464397142469E-01
2.00388836069987E-01
2.06439733633184E-01
2.06439733557377E-01
2.00388836118289E-01
1.88464397283900E-01
1.71015930411069E-01
1.71015930542012E-01
1.88464397470129E-01
2.00388836398482E-01
2.06439734247788E-01
2.06439734343774E-01
2.00388836620348E-01
1.88464397295564E-01
1.71015930179345E-01
1.71015930890746E-01
1.88464397816820E-01
2.00388836644863E-01
2.06439734218200E-01
2.06439734156745E-01
2.00388836646213E-01
1.88464397684431E-01
1.71015930796373E-01
1.96873046643105E-01
2.16959671257963E-01
2.30687051148984E-01
2.37652827032234E-01
2.37652827140231E-01
2.30687051419603E-01
2.16959671542853E-01
1.96873046675742E-01
2.16959671245995E-01
2.39095700520495E-01
2.54223661754894E-01
2.61900143994532E-01
2.61900144097719E-01
2.54223661992645E-01
2.39095700716156E-01
2.16959671340544E-01
2.30687051179241E-01
2.54223661787471E-01
2.70308793049814E-01
2.78470978417413E-01
2.78470978454300E-01
2.70308793166175E-01
2.54223661909552E-01
2.30687051242931E-01
2.37652826961155E-01
2.61900143940168E-01
2.78470978264361E-01
2.86879627184963E-01
2.86879627185448E-01
2.78470978259533E-01
2.61900143887727E-01
2.37652826905704E-01
2.37652826792806E-01
2.61900143699838E-01
2.78470978047096E-01
2.86879627011816E-01
2.86879627007226E-01
2.78470978023380E-01
2.61900143586423E-01
2.37652826613500E-01
2.30687050752229E-01
2.54223661310587E-01
2.70308792608189E-01
2.78470978048722E-01
2.78470978058555E-01
2.70308792630204E-01
2.54223661277926E-01
2.30687050677000E-01
2.16959670684489E-01
2.39095699990992E-01
2.54223661440410E-01
2.61900143822331E-01
2.61900143852911E-01
2.54223661540918E-01
2.39095700169039E-01
2.16959670962484E-01
1.96873045991961E-01
2.16959670852256E-01
2.30687051019944E-01
2.37652827100939E-01
2.37652827097196E-01
2.30687051062715E-01
2.16959671060571E-01
1.96873046405233E-01
1.96873046744535E-01
2.16959671375737E-01
2.30687051250511E-01
2.37652827078228E-01
2.37652827093406E-01
2.30687051300162E-01
2.16959671364655E-01
1.96873046469587E-01
2.16959671409883E-01
2.39095700664152E-01
2.54223661858370E-01
2.61900144026125E-01
2.61900144043363E-01
2.54223661863757E-01
2.39095700525540E-01
2.16959671144489E-01
2.30687051373016E-01
2.54223661939256E-01
2.70308793129107E-01
2.78470978417096E-01
2.78470978381912E-01
2.70308793034678E-01
2.54223661726717E-01
2.30687051037245E-01
2.37652827107635E-01
2.61900144035752E-01
2.78470978292345E-01
2.86879627148538E-01
2.86879627083291E-01
2.78470978106632E-01
2.61900143714472E-01
2.37652826735407E-01
2.37652826845564E-01
2.61900143739334E-01
2.78470978049316E-01
2.86879626961214E-01
2.86879626885265E-01
2.78470977854866E-01
2.61900143431007E-01
2.37652826524996E-01
2.30687050804143E-01
2.54223661353022E-01
2.70308792603448E-01
2.78470977988740E-01
2.78470977948783E-01
2.70308792475584E-01
2.54223661098593E-01
2.30687050551221E-01
2.16959670846430E-01
2.39095700092898E-01
2.54223661405347E-01
2.61900143731812E-01
2.61900143808008E-01
2.54223661462430E-01
2.39095699916690E-01
2.16959670606563E-01
1.96873046224668E-01
2.16959671016435E-01
2.30687050941522E-01
2.37652826961097E-01
2.37652827140056E-01
2.30687051139487E-01
2.16959670820976E-01
1.96873045929418E-01
1.96873046793229E-01
2.16959671260916E-01
2.30687051180347E-01
2.37652826964608E-01
2.37652826971428E-01
2.30687051313293E-01
2.16959671361875E-01
1.96873046901255E-01
2.16959671330071E-01
2.39095700506076E-01
2.54223661709563E-01
2.61900143952692E-01
2.61900143976124E-01
2.54223661855151E-01
2.39095700637032E-01
2.16959671499871E-01
2.30687051087947E-01
2.54223661658951E-01
2.70308792899668E-01
2.78470978289633E-01
2.78470978294255E-01
2.70308793022739E-01
2.54223661821062E-01
2.30687051295872E-01
2.37652826855584E-01
2.61900143832207E-01
2.78470978129449E-01
2.86879627140257E-01
2.86879627129389E-01
2.78470978209458E-01
2.61900143945303E-01
2.37652827009975E-01
2.37652826711503E-01
2.61900143620950E-01
2.78470977915216E-01
2.86879626956665E-01
2.86879626939507E-01
2.78470977983411E-01
2.61900143682801E-01
2.37652826752672E-01
2.30687050663945E-01
2.54223661206869E-01
2.70308792366128E-01
2.78470977819158E-01
2.78470977793744E-01
2.70308792424050E-01
2.54223661258918E-01
2.30687050686049E-01
2.16959670746321E-01
2.39095699853273E-01
2.54223661060784E-01
2.61900143307205E-01
2.61900143250229E-01
2.54223661077736E-01
2.39095699936031E-01
2.16959670871346E-01
1.96873046096663E-01
2.16959670624814E-01
2.30687050567302E-01
2.37652826155534E-01
2.37652826035780E-01
2.30687050476895E-01
2.16959670728097E-01
1.96873046271553E-01
1.96873046351262E-01
2.16959670735260E-01
2.30687050678327E-01
2.37652826108289E-01
2.37652826029025E-01
2.30687050584568E-01
2.16959670858362E-01
1.96873046592907E-01
2.16959671010103E-01
2.39095700089361E-01
2.54223661367588E-01
2.61900143429607E-01
2.61900143345380E-01
2.54223661330045E-01
2.39095700184104E-01
2.16959671207120E-01
2.30687051245852E-01
2.54223661688000E-01
2.70308792940501E-01
2.78470978269165E-01
2.78470978248750E-01
2.70308792950320E-01
2.54223661685374E-01
2.30687051163754E-01
2.37652827271927E-01
2.61900144189397E-01
2.78470978572919E-01
2.86879627603352E-01
2.86879627619317E-01
2.78470978617678E-01
2.61900144136278E-01
2.37652827125855E-01
2.37652827322593E-01
2.61900144315285E-01
2.78470978783356E-01
2.86879627789545E-01
2.86879627752883E-01
2.78470978758843E-01
2.61900144292361E-01
2.37652827365820E-01
2.30687051282113E-01
2.54223661950591E-01
2.70308793256451E-01
2.78470978656525E-01
2.78470978570966E-01
2.70308793157189E-01
2.54223661904322E-01
2.30687051368834E-01
2.16959671318088E-01
2.39095700499996E-01
2.54223661806002E-01
2.61900144127897E-01
2.61900144098008E-01
2.54223661757483E-01
2.39095700331702E-01
2.16959671084912E-01
1.96873046725280E-01
2.16959671147288E-01
2.30687051040071E-01
2.37652827007117E-01
2.37652827190843E-01
2.30687051209950E-01
2.16959670842182E-01
1.96873046183383E-01
1.96873046717064E-01
2.16959671116973E-01
2.30687051052615E-01
2.37652826998776E-01
2.37652827235195E-01
2.30687051240765E-01
2.16959670822393E-01
1.96873046190073E-01
2.16959670973262E-01
2.39095700045502E-01
2.54223661243579E-01
2.61900143646523E-01
2.61900143773100E-01
2.54223661416734E-01
2.39095699814868E-01
2.16959670550826E-01
2.30687050635818E-01
2.54223661331869E-01
2.70308792574646E-01
2.78470977980151E-01
2.78470977945245E-01
2.70308792522670E-01
2.54223661152378E-01
2.30687050540284E-01
2.37652826472782E-01
2.61900143613116E-01
2.78470977931640E-01
2.86879626825240E-01
2.86879626715586E-01
2.78470977771360E-01
2.61900143476389E-01
2.37652826415531E-01
2.37652826712058E-01
2.61900143734888E-01
2.78470978032761E-01
2.86879626883501E-01
2.86879626782775E-01
2.78470977888753E-01
2.61900143578535E-01
2.37652826539246E-01
2.30687051082942E-01
2.54223661642329E-01
2.70308792731002E-01
2.78470977997847E-01
2.78470977924880E-01
2.70308792633073E-01
2.54223661466587E-01
2.30687050862355E-01
2.16959671292041E-01
2.39095700486295E-01
2.54223661622174E-01
2.61900143727127E-01
2.61900143668919E-01
2.54223661538454E-01
2.39095700308822E-01
2.16959671104783E-01
1.96873046805623E-01
2.16959671379080E-01
2.30687051367144E-01
2.37652826797002E-01
2.37652826722774E-01
2.30687051243524E-01
2.16959671164014E-01
1.96873046578444E-01
1.96873047166542E-01
2.16959671449597E-01
2.30687051404937E-01
2.37652826845801E-01
2.37652826788331E-01
2.30687051235207E-01
2.16959671241463E-01
1.96873046960559E-01
2.16959671535432E-01
2.39095700459252E-01
2.54223661651236E-01
2.61900143667860E-01
2.61900143586354E-01
2.54223661593140E-01
2.39095700321179E-01
2.16959671349354E-01
2.30687051367664E-01
2.54223661649665E-01
2.70308792743417E-01
2.78470978061324E-01
2.78470978001706E-01
2.70308792715068E-01
2.54223661571650E-01
2.30687051214871E-01
2.37652826989731E-01
2.61900143657259E-01
2.78470977864067E-01
2.86879626925788E-01
2.86879626891299E-01
2.78470977885544E-01
2.61900143650849E-01
2.37652826899782E-01
2.37652826849670E-01
2.61900143603212E-01
2.78470977860175E-01
2.86879626944470E-01
2.86879626913019E-01
2.78470977902307E-01
2.61900143650451E-01
2.37652826869074E-01
2.30687051009791E-01
2.54223661310168E-01
2.70308792396461E-01
2.78470977836690E-01
2.78470977809405E-01
2.70308792449703E-01
2.54223661380504E-01
2.30687051115545E-01
2.16959671208837E-01
2.39095700193217E-01
2.54223661286472E-01
2.61900143537135E-01
2.61900143535484E-01
2.54223661381456E-01
2.39095700298810E-01
2.16959671317996E-01
1.96873047114456E-01
2.16959671323533E-01
2.30687051160683E-01
2.37652826786926E-01
2.37652826840920E-01
2.30687051295876E-01
2.16959671406593E-01
1.96873047246031E-01
2.26639684248922E-01
2.49763348368122E-01
2.65566268649072E-01
2.73585249422431E-01
2.73585249580529E-01
2.65566268775407E-01
2.49763348441122E-01
2.26639684385429E-01
2.49763348515807E-01
2.75246281041064E-01
2.92661546542962E-01
3.01498690579810E-01
3.01498690651423E-01
2.92661546649505E-01
2.75246281111783E-01
2.49763348641140E-01
2.65566268723425E-01
2.92661546483920E-01
3.11178703258527E-01
3.20574987499893E-01
3.20574987512763E-01
3.11178703234056E-01
2.92661546551220E-01
2.65566268926114E-01
2.73585249568259E-01
3.01498690267117E-01
3.20574987003569E-01
3.30254999574030E-01
3.30254999560451E-01
3.20574986896902E-01
3.01498690237033E-01
2.73585249648713E-01
2.73585249802828E-01
3.01498690395229E-01
3.20574987090786E-01
3.30254999722035E-01
3.30254999742281E-01
3.20574987032500E-01
3.01498690342777E-01
2.73585249771966E-01
2.65566269055295E-01
2.92661546483019E-01
3.11178703054651E-01
3.20574987330357E-01
3.20574987351228E-01
3.11178702962238E-01
2.92661546356007E-01
2.65566268922752E-01
2.49763348807881E-01
2.75246281345970E-01
2.92661546685854E-01
3.01498690504813E-01
3.01498690465780E-01
2.92661546501612E-01
2.75246281123501E-01
2.49763348555477E-01
2.26639684345959E-01
2.49763348731059E-01
2.65566269305553E-01
2.73585249433641E-01
2.73585249393675E-01
2.65566269081926E-01
2.49763348504216E-01
2.26639684124858E-01
2.49763348720015E-01
2.75246281223448E-01
2.92661546760758E-01
3.01498690782026E-01
3.01498690863075E-01
2.92661546896713E-01
2.75246281349648E-01
2.49763348918201E-01
2.75246281352895E-01
3.03329194463392E-01
3.22521310060146E-01
3.32260093180763E-01
3.32260093202954E-01
3.22521310204670E-01
3.03329194609937E-01
2.75246281518245E-01
2.92661546830733E-01
3.22521310166248E-01
3.42927741134815E-01
3.53282712555436E-01
3.53282712548979E-01
3.42927741196757E-01
3.22521310276543E-01
2.92661546963469E-01
3.01498690950942E-01
3.32260093238544E-01
3.53282712431935E-01
3.63950360503016E-01
3.63950360485723E-01
3.53282712450080E-01
3.32260093285584E-01
3.01498690983523E-01
3.01498691134827E-01
3.32260093372546E-01
3.53282712571809E-01
3.63950360695876E-01
3.63950360684097E-01
3.53282712582934E-01
3.32260093375209E-01
3.01498691075350E-01
2.92661547167676E-01
3.22521310528848E-01
3.42927741565668E-01
3.53282712954825E-01
3.53282712919677E-01
3.42927741518527E-01
3.22521310447446E-01
2.92661547026690E-01
2.75246281604141E-01
3.03329195016167E-01
3.22521310696339E-01
3.32260093498746E-01
3.32260093436932E-01
3.22521310593766E-01
3.03329194822561E-01
2.75246281361357E-01
2.49763348743926E-01
2.75246281416722E-01
2.92661547064027E-01
3.01498690556373E-01
3.01498690541065E-01
2.92661546953823E-01
2.75246281190494E-01
2.49763348498135E-01
2.65566268707105E-01
2.92661546526627E-01
3.11178703322674E-01
3.20574987553487E-01
3.20574987609901E-01
3.11178703396024E-01
2.92661546664155E-01
2.65566268967550E-01
2.92661546691640E-01
3.22521310082405E-01
3.42927741049928E-01
3.53282712454772E-01
3.53282712470372E-01
3.42927741155666E-01
3.22521310213880E-01
2.92661546857803E-01
3.11178703504489E-01
3.42927741267978E-01
3.64625319358239E-01
3.75635466180640E-01
3.75635466192883E-01
3.64625319419708E-01
3.42927741357454E-01
3.11178703585661E-01
3.20574987699206E-01
3.53282712588967E-01
3.75635466100700E-01
3.86978073079211E-01
3.86978073074454E-01
3.75635466106565E-01
3.53282712604528E-01
3.20574987688991E-01
3.20574987786668E-01
3.53282712673752E-01
3.75635466223074E-01
3.86978073231630E-01
3.86978073218560E-01
3.75635466200634E-01
3.53282712645794E-01
3.20574987717073E-01
3.11178703589100E-01
3.42927741530843E-01
3.64625319718139E-01
3.75635466463848E-01
3.75635466439536E-01
3.64625319654941E-01
3.42927741425184E-01
3.11178703450099E-01
2.92661546824580E-01
3.22521310482235E-01
3.42927741545423E-01
3.53282712636051E-01
3.53282712606646E-01
3.42927741451120E-01
3.22521310285337E-01
2.92661546579473E-01
2.65566268793473E-01
2.92661546717188E-01
3.11178703473155E-01
3.20574987358494E-01
3.20574987358661E-01
3.11178703368219E-01
2.92661546473113E-01
2.65566268492884E-01
2.73585249776910E-01
3.01498690660512E-01
3.20574987416893E-01
3.30254999923351E-01
3.30254999983746E-01
3.20574987467460E-01
3.01498690752606E-01
2.73585249975533E-01
3.01498690850626E-01
3.32260093292810E-01
3.53282712494682E-01
3.63950360462175E-01
3.63950360478133E-01
3.53282712568437E-01
3.32260093375666E-01
3.01498690956253E-01
3.20574987658612E-01
3.53282712695181E-01
3.75635466212199E-01
3.86978073112251E-01
3.86978073109934E-01
3.75635466219464E-01
3.53282712722212E-01
3.20574987696249E-01
3.30254999972209E-01
3.63950360406827E-01
3.86978072830826E-01
3.98663178751121E-01
3.98663178730522E-01
3.86978072781534E-01
3.63950360366792E-01
3.30254999930551E-01
3.30255000005204E-01
3.63950360389549E-01
3.86978072836682E-01
3.98663178783552E-01
3.98663178766515E-01
3.86978072778107E-01
3.63950360306285E-01
3.30254999889204E-01
3.20574987541696E-01
3.53282712643102E-01
3.75635466209032E-01
3.86978073067033E-01
3.86978073049351E-01
3.75635466135180E-01
3.53282712508985E-01
3.20574987362022E-01
3.01498690785775E-01
3.32260093404610E-01
3.53282712603663E-01
3.63950360324586E-01
3.63950360276261E-01
3.53282712477529E-01
3.32260093206336E-01
3.01498690545569E-01
2.73585249665942E-01
3.01498690652011E-01
3.20574987376100E-01
3.30254999577651E-01
3.30254999516131E-01