# vtk DataFile Version 2.0
1D, Created by Gmsh 4.12.2 
ASCII
DATASET UNSTRUCTURED_GRID
POINTS 101 double
0 0 0
1 0 0
0.009999999999981104 0 0
0.01999999999996237 0 0
0.02999999999994307 0 0
0.03999999999992186 0 0
0.04999999999989966 0 0
0.05999999999987837 0 0
0.06999999999986051 0 0
0.07999999999984518 0 0
0.0899999999998299 0 0
0.09999999999981463 0 0
0.1099999999997994 0 0
0.1199999999997832 0 0
0.1299999999997609 0 0
0.1399999999997328 0 0
0.1499999999997036 0 0
0.1599999999996745 0 0
0.1699999999996453 0 0
0.1799999999996162 0 0
0.189999999999587 0 0
0.1999999999995579 0 0
0.2099999999995288 0 0
0.2199999999994996 0 0
0.2299999999994704 0 0
0.2399999999994413 0 0
0.2499999999994121 0 0
0.259999999999383 0 0
0.2699999999993538 0 0
0.2799999999993247 0 0
0.2899999999992955 0 0
0.2999999999992664 0 0
0.3099999999992372 0 0
0.3199999999992081 0 0
0.329999999999179 0 0
0.3399999999991498 0 0
0.3499999999991207 0 0
0.3599999999990915 0 0
0.3699999999990624 0 0
0.3799999999990332 0 0
0.3899999999990041 0 0
0.3999999999989749 0 0
0.4099999999989458 0 0
0.4199999999989167 0 0
0.4299999999988875 0 0
0.4399999999988584 0 0
0.4499999999988292 0 0
0.4599999999988 0 0
0.4699999999987708 0 0
0.4799999999987418 0 0
0.4899999999987126 0 0
0.4999999999986943 0 0
0.5099999999987098 0 0
0.5199999999987361 0 0
0.5299999999987626 0 0
0.5399999999987888 0 0
0.5499999999988152 0 0
0.5599999999988415 0 0
0.5699999999988679 0 0
0.5799999999988942 0 0
0.5899999999989205 0 0
0.5999999999989468 0 0
0.6099999999989731 0 0
0.6199999999989995 0 0
0.6299999999990258 0 0
0.6399999999990521 0 0
0.6499999999990784 0 0
0.6599999999991049 0 0
0.6699999999991312 0 0
0.6799999999991574 0 0
0.6899999999991837 0 0
0.6999999999992101 0 0
0.7099999999992365 0 0
0.7199999999992628 0 0
0.7299999999992892 0 0
0.7399999999993154 0 0
0.7499999999993417 0 0
0.7599999999993681 0 0
0.7699999999993945 0 0
0.7799999999994207 0 0
0.789999999999447 0 0
0.7999999999994734 0 0
0.8099999999994998 0 0
0.8199999999995261 0 0
0.8299999999995523 0 0
0.8399999999995788 0 0
0.8499999999996051 0 0
0.8599999999996314 0 0
0.8699999999996577 0 0
0.8799999999996841 0 0
0.8899999999997104 0 0
0.8999999999997367 0 0
0.9099999999997631 0 0
0.9199999999997894 0 0
0.9299999999998156 0 0
0.939999999999842 0 0
0.9499999999998684 0 0
0.9599999999998947 0 0
0.969999999999921 0 0
0.9799999999999475 0 0
0.9899999999999737 0 0

CELLS 100 300
2 0 2
2 2 3
2 3 4
2 4 5
2 5 6
2 6 7
2 7 8
2 8 9
2 9 10
2 10 11
2 11 12
2 12 13
2 13 14
2 14 15
2 15 16
2 16 17
2 17 18
2 18 19
2 19 20
2 20 21
2 21 22
2 22 23
2 23 24
2 24 25
2 25 26
2 26 27
2 27 28
2 28 29
2 29 30
2 30 31
2 31 32
2 32 33
2 33 34
2 34 35
2 35 36
2 36 37
2 37 38
2 38 39
2 39 40
2 40 41
2 41 42
2 42 43
2 43 44
2 44 45
2 45 46
2 46 47
2 47 48
2 48 49
2 49 50
2 50 51
2 51 52
2 52 53
2 53 54
2 54 55
2 55 56
2 56 57
2 57 58
2 58 59
2 59 60
2 60 61
2 61 62
2 62 63
2 63 64
2 64 65
2 65 66
2 66 67
2 67 68
2 68 69
2 69 70
2 70 71
2 71 72
2 72 73
2 73 74
2 74 75
2 75 76
2 76 77
2 77 78
2 78 79
2 79 80
2 80 81
2 81 82
2 82 83
2 83 84
2 84 85
2 85 86
2 86 87
2 87 88
2 88 89
2 89 90
2 90 91
2 91 92
2 92 93
2 93 94
2 94 95
2 95 96
2 96 97
2 97 98
2 98 99
2 99 100
2 100 1

CELL_TYPES 100
3
3
3
3
3
3
3
3
3
3
3
3
3
3
3
3
3
3
3
3
3
3
3
3
3
3
3
3
3
3
3
3
3
3
3
3
3
3
3
3
3
3
3
3
3
3
3
3
3
3
3
3
3
3
3
3
3
3
3
3
3
3
3
3
3
3
3
3
3
3
3
3
3
3
3
3
3
3
3
3
3
3
3
3
3
3
3
3
3
3
3
3
3
3
3
3
3
3
3
3

CELL_DATA 100
SCALARS CellEntityIds int 1
LOOKUP_TABLE default
1
1
1
1
1
1
1
1
1
1
1
1
1
1
1
1
1
1
1
1
1
1
1
1
1
1
1
1
1
1
1
1
1
1
1
1
1
1
1
1
1
1
1
1
1
1
1
1
1
1
1
1
1
1
1
1
1
1
1
1
1
1
1
1
1
1
1
1
1
1
1
1
1
1
1
1
1
1
1
1
1
1
1
1
1
1
1
1
1
1
1
1
1
1
1
1
1
1
1
1
