# vtk DataFile Version 2.0
1D, Created by Gmsh 4.12.2 
ASCII
DATASET UNSTRUCTURED_GRID
POINTS 201 double
0 0 0
1 0 0
0.009999999999981104 0 0
0.01999999999996237 0 0
0.02999999999994307 0 0
0.03999999999992186 0 0
0.04999999999989966 0 0
0.05999999999987837 0 0
0.06999999999986051 0 0
0.07999999999984518 0 0
0.0899999999998299 0 0
0.09999999999981463 0 0
0.1099999999997994 0 0
0.1199999999997832 0 0
0.1299999999997609 0 0
0.1399999999997328 0 0
0.1499999999997036 0 0
0.1599999999996745 0 0
0.1699999999996453 0 0
0.1799999999996162 0 0
0.189999999999587 0 0
0.1999999999995579 0 0
0.2099999999995288 0 0
0.2199999999994996 0 0
0.2299999999994704 0 0
0.2399999999994413 0 0
0.2499999999994121 0 0
0.259999999999383 0 0
0.2699999999993538 0 0
0.2799999999993247 0 0
0.2899999999992955 0 0
0.2999999999992664 0 0
0.3099999999992372 0 0
0.3199999999992081 0 0
0.329999999999179 0 0
0.3399999999991498 0 0
0.3499999999991207 0 0
0.3599999999990915 0 0
0.3699999999990624 0 0
0.3799999999990332 0 0
0.3899999999990041 0 0
0.3999999999989749 0 0
0.4099999999989458 0 0
0.4199999999989167 0 0
0.4299999999988875 0 0
0.4399999999988584 0 0
0.4499999999988292 0 0
0.4599999999988 0 0
0.4699999999987708 0 0
0.4799999999987418 0 0
0.4899999999987126 0 0
0.4999999999986943 0 0
0.5099999999987098 0 0
0.5199999999987361 0 0
0.5299999999987626 0 0
0.5399999999987888 0 0
0.5499999999988152 0 0
0.5599999999988415 0 0
0.5699999999988679 0 0
0.5799999999988942 0 0
0.5899999999989205 0 0
0.5999999999989468 0 0
0.6099999999989731 0 0
0.6199999999989995 0 0
0.6299999999990258 0 0
0.6399999999990521 0 0
0.6499999999990784 0 0
0.6599999999991049 0 0
0.6699999999991312 0 0
0.6799999999991574 0 0
0.6899999999991837 0 0
0.6999999999992101 0 0
0.7099999999992365 0 0
0.7199999999992628 0 0
0.7299999999992892 0 0
0.7399999999993154 0 0
0.7499999999993417 0 0
0.7599999999993681 0 0
0.7699999999993945 0 0
0.7799999999994207 0 0
0.789999999999447 0 0
0.7999999999994734 0 0
0.8099999999994998 0 0
0.8199999999995261 0 0
0.8299999999995523 0 0
0.8399999999995788 0 0
0.8499999999996051 0 0
0.8599999999996314 0 0
0.8699999999996577 0 0
0.8799999999996841 0 0
0.8899999999997104 0 0
0.8999999999997367 0 0
0.9099999999997631 0 0
0.9199999999997894 0 0
0.9299999999998156 0 0
0.939999999999842 0 0
0.9499999999998684 0 0
0.9599999999998947 0 0
0.969999999999921 0 0
0.9799999999999475 0 0
0.9899999999999737 0 0
0.004999999999990468 0 0
0.01499999999997174 0 0
0.02499999999995272 0 0
0.03499999999993265 0 0
0.04499999999991076 0 0
0.05499999999988902 0 0
0.06499999999986858 0 0
0.07499999999985285 0 0
0.08499999999983754 0 0
0.09499999999982225 0 0
0.104999999999807 0 0
0.1149999999997913 0 0
0.1249999999997755 0 0
0.1349999999997469 0 0
0.1449999999997182 0 0
0.1549999999996891 0 0
0.1649999999996599 0 0
0.1749999999996307 0 0
0.1849999999996016 0 0
0.1949999999995725 0 0
0.2049999999995433 0 0
0.2149999999995142 0 0
0.224999999999485 0 0
0.2349999999994559 0 0
0.2449999999994267 0 0
0.2549999999993976 0 0
0.2649999999993684 0 0
0.2749999999993393 0 0
0.2849999999993101 0 0
0.2949999999992809 0 0
0.3049999999992518 0 0
0.3149999999992227 0 0
0.3249999999991936 0 0
0.3349999999991644 0 0
0.3449999999991352 0 0
0.3549999999991061 0 0
0.364999999999077 0 0
0.3749999999990478 0 0
0.3849999999990187 0 0
0.3949999999989895 0 0
0.4049999999989603 0 0
0.4149999999989312 0 0
0.4249999999989021 0 0
0.434999999998873 0 0
0.4449999999988438 0 0
0.4549999999988146 0 0
0.4649999999987854 0 0
0.4749999999987563 0 0
0.4849999999987272 0 0
0.4949999999987035 0 0
0.504999999998702 0 0
0.5149999999987229 0 0
0.5249999999987494 0 0
0.5349999999987757 0 0
0.544999999998802 0 0
0.5549999999988284 0 0
0.5649999999988546 0 0
0.5749999999988811 0 0
0.5849999999989073 0 0
0.5949999999989337 0 0
0.6049999999989599 0 0
0.6149999999989864 0 0
0.6249999999990126 0 0
0.634999999999039 0 0
0.6449999999990652 0 0
0.6549999999990916 0 0
0.6649999999991181 0 0
0.6749999999991443 0 0
0.6849999999991705 0 0
0.6949999999991969 0 0
0.7049999999992234 0 0
0.7149999999992496 0 0
0.724999999999276 0 0
0.7349999999993023 0 0
0.7449999999993286 0 0
0.7549999999993549 0 0
0.7649999999993813 0 0
0.7749999999994076 0 0
0.7849999999994339 0 0
0.7949999999994601 0 0
0.8049999999994866 0 0
0.814999999999513 0 0
0.8249999999995392 0 0
0.8349999999995655 0 0
0.8449999999995919 0 0
0.8549999999996183 0 0
0.8649999999996445 0 0
0.8749999999996709 0 0
0.8849999999996973 0 0
0.8949999999997236 0 0
0.9049999999997499 0 0
0.9149999999997762 0 0
0.9249999999998025 0 0
0.9349999999998289 0 0
0.9449999999998552 0 0
0.9549999999998815 0 0
0.9649999999999079 0 0
0.9749999999999343 0 0
0.9849999999999606 0 0
0.9949999999999868 0 0

CELLS 100 400
3 0 2 101
3 2 3 102
3 3 4 103
3 4 5 104
3 5 6 105
3 6 7 106
3 7 8 107
3 8 9 108
3 9 10 109
3 10 11 110
3 11 12 111
3 12 13 112
3 13 14 113
3 14 15 114
3 15 16 115
3 16 17 116
3 17 18 117
3 18 19 118
3 19 20 119
3 20 21 120
3 21 22 121
3 22 23 122
3 23 24 123
3 24 25 124
3 25 26 125
3 26 27 126
3 27 28 127
3 28 29 128
3 29 30 129
3 30 31 130
3 31 32 131
3 32 33 132
3 33 34 133
3 34 35 134
3 35 36 135
3 36 37 136
3 37 38 137
3 38 39 138
3 39 40 139
3 40 41 140
3 41 42 141
3 42 43 142
3 43 44 143
3 44 45 144
3 45 46 145
3 46 47 146
3 47 48 147
3 48 49 148
3 49 50 149
3 50 51 150
3 51 52 151
3 52 53 152
3 53 54 153
3 54 55 154
3 55 56 155
3 56 57 156
3 57 58 157
3 58 59 158
3 59 60 159
3 60 61 160
3 61 62 161
3 62 63 162
3 63 64 163
3 64 65 164
3 65 66 165
3 66 67 166
3 67 68 167
3 68 69 168
3 69 70 169
3 70 71 170
3 71 72 171
3 72 73 172
3 73 74 173
3 74 75 174
3 75 76 175
3 76 77 176
3 77 78 177
3 78 79 178
3 79 80 179
3 80 81 180
3 81 82 181
3 82 83 182
3 83 84 183
3 84 85 184
3 85 86 185
3 86 87 186
3 87 88 187
3 88 89 188
3 89 90 189
3 90 91 190
3 91 92 191
3 92 93 192
3 93 94 193
3 94 95 194
3 95 96 195
3 96 97 196
3 97 98 197
3 98 99 198
3 99 100 199
3 100 1 200

CELL_TYPES 100
21
21
21
21
21
21
21
21
21
21
21
21
21
21
21
21
21
21
21
21
21
21
21
21
21
21
21
21
21
21
21
21
21
21
21
21
21
21
21
21
21
21
21
21
21
21
21
21
21
21
21
21
21
21
21
21
21
21
21
21
21
21
21
21
21
21
21
21
21
21
21
21
21
21
21
21
21
21
21
21
21
21
21
21
21
21
21
21
21
21
21
21
21
21
21
21
21
21
21
21

CELL_DATA 100
SCALARS CellEntityIds int 1
LOOKUP_TABLE default
1
1
1
1
1
1
1
1
1
1
1
1
1
1
1
1
1
1
1
1
1
1
1
1
1
1
1
1
1
1
1
1
1
1
1
1
1
1
1
1
1
1
1
1
1
1
1
1
1
1
1
1
1
1
1
1
1
1
1
1
1
1
1
1
1
1
1
1
1
1
1
1
1
1
1
1
1
1
1
1
1
1
1
1
1
1
1
1
1
1
1
1
1
1
1
1
1
1
1
1
