# vtk DataFile Version 2.0
1D, Created by Gmsh 4.12.2 
ASCII
DATASET UNSTRUCTURED_GRID
POINTS 6 double
0 0 0
1 0 0
0.2 0 0
0.4 0 0
0.6 0 0
0.8 0 0

CELLS 1 7
6 0 1 2 3 4 5

CELL_TYPES 1
3

CELL_DATA 1
SCALARS CellEntityIds int 1
LOOKUP_TABLE default
1
