# vtk DataFile Version 2.0
1D, Created by Gmsh 4.12.2 
ASCII
DATASET UNSTRUCTURED_GRID
POINTS 601 double
0 0 0
1 0 0
0.009999999999981104 0 0
0.01999999999996237 0 0
0.02999999999994307 0 0
0.03999999999992186 0 0
0.04999999999989966 0 0
0.05999999999987837 0 0
0.06999999999986051 0 0
0.07999999999984518 0 0
0.0899999999998299 0 0
0.09999999999981463 0 0
0.1099999999997994 0 0
0.1199999999997832 0 0
0.1299999999997609 0 0
0.1399999999997328 0 0
0.1499999999997036 0 0
0.1599999999996745 0 0
0.1699999999996453 0 0
0.1799999999996162 0 0
0.189999999999587 0 0
0.1999999999995579 0 0
0.2099999999995288 0 0
0.2199999999994996 0 0
0.2299999999994704 0 0
0.2399999999994413 0 0
0.2499999999994121 0 0
0.259999999999383 0 0
0.2699999999993538 0 0
0.2799999999993247 0 0
0.2899999999992955 0 0
0.2999999999992664 0 0
0.3099999999992372 0 0
0.3199999999992081 0 0
0.329999999999179 0 0
0.3399999999991498 0 0
0.3499999999991207 0 0
0.3599999999990915 0 0
0.3699999999990624 0 0
0.3799999999990332 0 0
0.3899999999990041 0 0
0.3999999999989749 0 0
0.4099999999989458 0 0
0.4199999999989167 0 0
0.4299999999988875 0 0
0.4399999999988584 0 0
0.4499999999988292 0 0
0.4599999999988 0 0
0.4699999999987708 0 0
0.4799999999987418 0 0
0.4899999999987126 0 0
0.4999999999986943 0 0
0.5099999999987098 0 0
0.5199999999987361 0 0
0.5299999999987626 0 0
0.5399999999987888 0 0
0.5499999999988152 0 0
0.5599999999988415 0 0
0.5699999999988679 0 0
0.5799999999988942 0 0
0.5899999999989205 0 0
0.5999999999989468 0 0
0.6099999999989731 0 0
0.6199999999989995 0 0
0.6299999999990258 0 0
0.6399999999990521 0 0
0.6499999999990784 0 0
0.6599999999991049 0 0
0.6699999999991312 0 0
0.6799999999991574 0 0
0.6899999999991837 0 0
0.6999999999992101 0 0
0.7099999999992365 0 0
0.7199999999992628 0 0
0.7299999999992892 0 0
0.7399999999993154 0 0
0.7499999999993417 0 0
0.7599999999993681 0 0
0.7699999999993945 0 0
0.7799999999994207 0 0
0.789999999999447 0 0
0.7999999999994734 0 0
0.8099999999994998 0 0
0.8199999999995261 0 0
0.8299999999995523 0 0
0.8399999999995788 0 0
0.8499999999996051 0 0
0.8599999999996314 0 0
0.8699999999996577 0 0
0.8799999999996841 0 0
0.8899999999997104 0 0
0.8999999999997367 0 0
0.9099999999997631 0 0
0.9199999999997894 0 0
0.9299999999998156 0 0
0.939999999999842 0 0
0.9499999999998684 0 0
0.9599999999998947 0 0
0.969999999999921 0 0
0.9799999999999475 0 0
0.9899999999999737 0 0
0.001666666666663474 0 0
0.003333333333326947 0 0
0.004999999999990467 0 0
0.006666666666654012 0 0
0.008333333333317558 0 0
0.01166666666664465 0 0
0.01333333333330819 0 0
0.01499999999997174 0 0
0.01666666666663528 0 0
0.01833333333329883 0 0
0.02166666666662582 0 0
0.02333333333328927 0 0
0.02499999999995272 0 0
0.02666666666661617 0 0
0.02833333333327962 0 0
0.03166666666660657 0 0
0.03333333333326963 0 0
0.03499999999993269 0 0
0.03666666666659574 0 0
0.0383333333332588 0 0
0.04166666666658483 0 0
0.04333333333324779 0 0
0.04499999999991076 0 0
0.04666666666657372 0 0
0.04833333333323669 0 0
0.05166666666656278 0 0
0.05333333333322589 0 0
0.05499999999988901 0 0
0.05666666666655213 0 0
0.05833333333321525 0 0
0.0616666666665412 0 0
0.06333333333320459 0 0
0.06499999999986858 0 0
0.06666666666653256 0 0
0.06833333333319654 0 0
0.07166666666652462 0 0
0.07333333333318873 0 0
0.07499999999985284 0 0
0.07666666666651695 0 0
0.07833333333318106 0 0
0.0816666666665093 0 0
0.08333333333317343 0 0
0.08499999999983755 0 0
0.08666666666650168 0 0
0.0883333333331658 0 0
0.09166666666649402 0 0
0.09333333333315814 0 0
0.09499999999982227 0 0
0.09666666666648639 0 0
0.09833333333315052 0 0
0.1016666666664787 0 0
0.1033333333331429 0 0
0.104999999999807 0 0
0.1066666666664711 0 0
0.1083333333331352 0 0
0.1116666666664634 0 0
0.1133333333331273 0 0
0.1149999999997913 0 0
0.1166666666664552 0 0
0.1183333333331192 0 0
0.1216666666664473 0 0
0.1233333333331114 0 0
0.1249999999997755 0 0
0.1266666666664373 0 0
0.1283333333330991 0 0
0.1316666666664229 0 0
0.1333333333330849 0 0
0.1349999999997469 0 0
0.1366666666664089 0 0
0.1383333333330709 0 0
0.1416666666663946 0 0
0.1433333333330564 0 0
0.1449999999997182 0 0
0.1466666666663801 0 0
0.1483333333330419 0 0
0.1516666666663654 0 0
0.1533333333330273 0 0
0.1549999999996891 0 0
0.1566666666663509 0 0
0.1583333333330127 0 0
0.1616666666663363 0 0
0.1633333333329981 0 0
0.1649999999996599 0 0
0.1666666666663217 0 0
0.1683333333329836 0 0
0.1716666666663071 0 0
0.173333333332969 0 0
0.1749999999996308 0 0
0.1766666666662926 0 0
0.1783333333329544 0 0
0.181666666666278 0 0
0.1833333333329398 0 0
0.1849999999996016 0 0
0.1866666666662634 0 0
0.1883333333329253 0 0
0.1916666666662488 0 0
0.1933333333329107 0 0
0.1949999999995725 0 0
0.1966666666662343 0 0
0.1983333333328961 0 0
0.2016666666662197 0 0
0.2033333333328815 0 0
0.2049999999995433 0 0
0.2066666666662051 0 0
0.208333333332867 0 0
0.2116666666661906 0 0
0.2133333333328524 0 0
0.2149999999995142 0 0
0.216666666666176 0 0
0.2183333333328378 0 0
0.2216666666661614 0 0
0.2233333333328232 0 0
0.2249999999994851 0 0
0.2266666666661469 0 0
0.2283333333328087 0 0
0.2316666666661323 0 0
0.2333333333327941 0 0
0.2349999999994559 0 0
0.2366666666661177 0 0
0.2383333333327795 0 0
0.2416666666661031 0 0
0.2433333333327649 0 0
0.2449999999994267 0 0
0.2466666666660886 0 0
0.2483333333327504 0 0
0.251666666666074 0 0
0.2533333333327358 0 0
0.2549999999993976 0 0
0.2566666666660594 0 0
0.2583333333327212 0 0
0.2616666666660448 0 0
0.2633333333327066 0 0
0.2649999999993685 0 0
0.2666666666660303 0 0
0.2683333333326921 0 0
0.2716666666660156 0 0
0.2733333333326775 0 0
0.2749999999993393 0 0
0.2766666666660011 0 0
0.2783333333326629 0 0
0.2816666666659866 0 0
0.2833333333326484 0 0
0.2849999999993102 0 0
0.286666666665972 0 0
0.2883333333326338 0 0
0.2916666666659574 0 0
0.2933333333326192 0 0
0.294999999999281 0 0
0.2966666666659428 0 0
0.2983333333326046 0 0
0.3016666666659282 0 0
0.30333333333259 0 0
0.3049999999992519 0 0
0.3066666666659137 0 0
0.3083333333325755 0 0
0.311666666665899 0 0
0.3133333333325609 0 0
0.3149999999992227 0 0
0.3166666666658845 0 0
0.3183333333325463 0 0
0.32166666666587 0 0
0.3233333333325318 0 0
0.3249999999991936 0 0
0.3266666666658554 0 0
0.3283333333325172 0 0
0.3316666666658408 0 0
0.3333333333325026 0 0
0.3349999999991645 0 0
0.3366666666658263 0 0
0.3383333333324881 0 0
0.3416666666658116 0 0
0.3433333333324735 0 0
0.3449999999991353 0 0
0.3466666666657971 0 0
0.3483333333324589 0 0
0.3516666666657825 0 0
0.3533333333324443 0 0
0.3549999999991061 0 0
0.356666666665768 0 0
0.3583333333324298 0 0
0.3616666666657533 0 0
0.3633333333324151 0 0
0.364999999999077 0 0
0.3666666666657388 0 0
0.3683333333324006 0 0
0.3716666666657242 0 0
0.3733333333323861 0 0
0.3749999999990479 0 0
0.3766666666657097 0 0
0.3783333333323715 0 0
0.381666666665695 0 0
0.3833333333323569 0 0
0.3849999999990187 0 0
0.3866666666656805 0 0
0.3883333333323423 0 0
0.3916666666656659 0 0
0.3933333333323277 0 0
0.3949999999989895 0 0
0.3966666666656514 0 0
0.3983333333323132 0 0
0.4016666666656367 0 0
0.4033333333322985 0 0
0.4049999999989604 0 0
0.4066666666656222 0 0
0.408333333332284 0 0
0.4116666666656076 0 0
0.4133333333322694 0 0
0.4149999999989312 0 0
0.416666666665593 0 0
0.4183333333322549 0 0
0.4216666666655785 0 0
0.4233333333322403 0 0
0.4249999999989021 0 0
0.426666666665564 0 0
0.4283333333322258 0 0
0.4316666666655493 0 0
0.4333333333322111 0 0
0.434999999998873 0 0
0.4366666666655348 0 0
0.4383333333321966 0 0
0.4416666666655202 0 0
0.443333333332182 0 0
0.4449999999988438 0 0
0.4466666666655056 0 0
0.4483333333321675 0 0
0.451666666665491 0 0
0.4533333333321528 0 0
0.4549999999988146 0 0
0.4566666666654765 0 0
0.4583333333321383 0 0
0.4616666666654619 0 0
0.4633333333321237 0 0
0.4649999999987855 0 0
0.4666666666654473 0 0
0.4683333333321091 0 0
0.4716666666654327 0 0
0.4733333333320945 0 0
0.4749999999987563 0 0
0.4766666666654181 0 0
0.4783333333320799 0 0
0.4816666666654036 0 0
0.4833333333320654 0 0
0.4849999999987272 0 0
0.486666666665389 0 0
0.4883333333320509 0 0
0.4916666666653762 0 0
0.4933333333320398 0 0
0.4949999999987034 0 0
0.496666666665367 0 0
0.4983333333320306 0 0
0.5016666666653635 0 0
0.5033333333320328 0 0
0.504999999998702 0 0
0.5066666666653713 0 0
0.5083333333320406 0 0
0.5116666666653809 0 0
0.5133333333320519 0 0
0.5149999999987229 0 0
0.516666666665394 0 0
0.518333333332065 0 0
0.5216666666654072 0 0
0.5233333333320782 0 0
0.5249999999987492 0 0
0.5266666666654203 0 0
0.5283333333320913 0 0
0.5316666666654336 0 0
0.5333333333321046 0 0
0.5349999999987757 0 0
0.5366666666654467 0 0
0.5383333333321177 0 0
0.5416666666654598 0 0
0.5433333333321309 0 0
0.5449999999988019 0 0
0.5466666666654729 0 0
0.548333333332144 0 0
0.5516666666654862 0 0
0.5533333333321573 0 0
0.5549999999988283 0 0
0.5566666666654994 0 0
0.5583333333321704 0 0
0.5616666666655126 0 0
0.5633333333321836 0 0
0.5649999999988546 0 0
0.5666666666655257 0 0
0.5683333333321967 0 0
0.5716666666655389 0 0
0.5733333333322099 0 0
0.574999999998881 0 0
0.576666666665552 0 0
0.578333333332223 0 0
0.5816666666655652 0 0
0.5833333333322362 0 0
0.5849999999989073 0 0
0.5866666666655783 0 0
0.5883333333322494 0 0
0.5916666666655915 0 0
0.5933333333322626 0 0
0.5949999999989336 0 0
0.5966666666656046 0 0
0.5983333333322757 0 0
0.6016666666656179 0 0
0.6033333333322889 0 0
0.6049999999989599 0 0
0.606666666665631 0 0
0.608333333332302 0 0
0.6116666666656442 0 0
0.6133333333323152 0 0
0.6149999999989862 0 0
0.6166666666656573 0 0
0.6183333333323283 0 0
0.6216666666656705 0 0
0.6233333333323415 0 0
0.6249999999990126 0 0
0.6266666666656836 0 0
0.6283333333323546 0 0
0.6316666666656968 0 0
0.6333333333323679 0 0
0.6349999999990389 0 0
0.6366666666657099 0 0
0.638333333332381 0 0
0.6416666666657231 0 0
0.6433333333323942 0 0
0.6449999999990652 0 0
0.6466666666657362 0 0
0.6483333333324073 0 0
0.6516666666657495 0 0
0.6533333333324205 0 0
0.6549999999990915 0 0
0.6566666666657626 0 0
0.6583333333324336 0 0
0.6616666666657759 0 0
0.6633333333324469 0 0
0.664999999999118 0 0
0.666666666665789 0 0
0.66833333333246 0 0
0.6716666666658022 0 0
0.6733333333324732 0 0
0.6749999999991443 0 0
0.6766666666658153 0 0
0.6783333333324864 0 0
0.6816666666658284 0 0
0.6833333333324995 0 0
0.6849999999991705 0 0
0.6866666666658415 0 0
0.6883333333325126 0 0
0.6916666666658547 0 0
0.6933333333325258 0 0
0.6949999999991968 0 0
0.6966666666658679 0 0
0.6983333333325389 0 0
0.7016666666658812 0 0
0.7033333333325522 0 0
0.7049999999992232 0 0
0.7066666666658943 0 0
0.7083333333325653 0 0
0.7116666666659075 0 0
0.7133333333325785 0 0
0.7149999999992496 0 0
0.7166666666659206 0 0
0.7183333333325916 0 0
0.7216666666659338 0 0
0.7233333333326049 0 0
0.7249999999992759 0 0
0.7266666666659469 0 0
0.728333333332618 0 0
0.7316666666659603 0 0
0.7333333333326313 0 0
0.7349999999993023 0 0
0.7366666666659734 0 0
0.7383333333326444 0 0
0.7416666666659865 0 0
0.7433333333326575 0 0
0.7449999999993285 0 0
0.7466666666659996 0 0
0.7483333333326706 0 0
0.7516666666660128 0 0
0.7533333333326838 0 0
0.7549999999993549 0 0
0.7566666666660259 0 0
0.7583333333326969 0 0
0.7616666666660391 0 0
0.7633333333327101 0 0
0.7649999999993812 0 0
0.7666666666660522 0 0
0.7683333333327232 0 0
0.7716666666660655 0 0
0.7733333333327366 0 0
0.7749999999994076 0 0
0.7766666666660786 0 0
0.7783333333327497 0 0
0.7816666666660917 0 0
0.7833333333327628 0 0
0.7849999999994338 0 0
0.7866666666661049 0 0
0.7883333333327759 0 0
0.7916666666661181 0 0
0.7933333333327891 0 0
0.7949999999994601 0 0
0.7966666666661312 0 0
0.7983333333328022 0 0
0.8016666666661444 0 0
0.8033333333328154 0 0
0.8049999999994865 0 0
0.8066666666661575 0 0
0.8083333333328285 0 0
0.8116666666661708 0 0
0.8133333333328419 0 0
0.8149999999995129 0 0
0.8166666666661839 0 0
0.818333333332855 0 0
0.8216666666661971 0 0
0.8233333333328682 0 0
0.8249999999995392 0 0
0.8266666666662102 0 0
0.8283333333328813 0 0
0.8316666666662234 0 0
0.8333333333328944 0 0
0.8349999999995654 0 0
0.8366666666662365 0 0
0.8383333333329075 0 0
0.8416666666662498 0 0
0.8433333333329208 0 0
0.8449999999995919 0 0
0.8466666666662629 0 0
0.8483333333329339 0 0
0.8516666666662761 0 0
0.8533333333329471 0 0
0.8549999999996182 0 0
0.8566666666662892 0 0
0.8583333333329602 0 0
0.8616666666663024 0 0
0.8633333333329735 0 0
0.8649999999996445 0 0
0.8666666666663155 0 0
0.8683333333329866 0 0
0.8716666666663287 0 0
0.8733333333329998 0 0
0.8749999999996708 0 0
0.8766666666663419 0 0
0.8783333333330129 0 0
0.8816666666663552 0 0
0.8833333333330262 0 0
0.8849999999996973 0 0
0.8866666666663683 0 0
0.8883333333330393 0 0
0.8916666666663814 0 0
0.8933333333330524 0 0
0.8949999999997235 0 0
0.8966666666663945 0 0
0.8983333333330655 0 0
0.9016666666664077 0 0
0.9033333333330787 0 0
0.9049999999997498 0 0
0.9066666666664208 0 0
0.9083333333330919 0 0
0.9116666666664341 0 0
0.9133333333331052 0 0
0.9149999999997762 0 0
0.9166666666664472 0 0
0.9183333333331183 0 0
0.9216666666664605 0 0
0.9233333333331315 0 0
0.9249999999998025 0 0
0.9266666666664736 0 0
0.9283333333331446 0 0
0.9316666666664867 0 0
0.9333333333331577 0 0
0.9349999999998287 0 0
0.9366666666664998 0 0
0.9383333333331708 0 0
0.941666666666513 0 0
0.943333333333184 0 0
0.9449999999998551 0 0
0.9466666666665261 0 0
0.9483333333331971 0 0
0.9516666666665394 0 0
0.9533333333332105 0 0
0.9549999999998815 0 0
0.9566666666665525 0 0
0.9583333333332236 0 0
0.9616666666665658 0 0
0.9633333333332368 0 0
0.9649999999999078 0 0
0.9666666666665789 0 0
0.9683333333332499 0 0
0.9716666666665921 0 0
0.9733333333332631 0 0
0.9749999999999341 0 0
0.9766666666666052 0 0
0.9783333333332762 0 0
0.9816666666666185 0 0
0.9833333333332895 0 0
0.9849999999999606 0 0
0.9866666666666316 0 0
0.9883333333333026 0 0
0.9916666666666447 0 0
0.9933333333333157 0 0
0.9949999999999868 0 0
0.9966666666666578 0 0
0.9983333333333289 0 0

CELLS 100 800
7 0 2 101 102 103 104 105
7 2 3 106 107 108 109 110
7 3 4 111 112 113 114 115
7 4 5 116 117 118 119 120
7 5 6 121 122 123 124 125
7 6 7 126 127 128 129 130
7 7 8 131 132 133 134 135
7 8 9 136 137 138 139 140
7 9 10 141 142 143 144 145
7 10 11 146 147 148 149 150
7 11 12 151 152 153 154 155
7 12 13 156 157 158 159 160
7 13 14 161 162 163 164 165
7 14 15 166 167 168 169 170
7 15 16 171 172 173 174 175
7 16 17 176 177 178 179 180
7 17 18 181 182 183 184 185
7 18 19 186 187 188 189 190
7 19 20 191 192 193 194 195
7 20 21 196 197 198 199 200
7 21 22 201 202 203 204 205
7 22 23 206 207 208 209 210
7 23 24 211 212 213 214 215
7 24 25 216 217 218 219 220
7 25 26 221 222 223 224 225
7 26 27 226 227 228 229 230
7 27 28 231 232 233 234 235
7 28 29 236 237 238 239 240
7 29 30 241 242 243 244 245
7 30 31 246 247 248 249 250
7 31 32 251 252 253 254 255
7 32 33 256 257 258 259 260
7 33 34 261 262 263 264 265
7 34 35 266 267 268 269 270
7 35 36 271 272 273 274 275
7 36 37 276 277 278 279 280
7 37 38 281 282 283 284 285
7 38 39 286 287 288 289 290
7 39 40 291 292 293 294 295
7 40 41 296 297 298 299 300
7 41 42 301 302 303 304 305
7 42 43 306 307 308 309 310
7 43 44 311 312 313 314 315
7 44 45 316 317 318 319 320
7 45 46 321 322 323 324 325
7 46 47 326 327 328 329 330
7 47 48 331 332 333 334 335
7 48 49 336 337 338 339 340
7 49 50 341 342 343 344 345
7 50 51 346 347 348 349 350
7 51 52 351 352 353 354 355
7 52 53 356 357 358 359 360
7 53 54 361 362 363 364 365
7 54 55 366 367 368 369 370
7 55 56 371 372 373 374 375
7 56 57 376 377 378 379 380
7 57 58 381 382 383 384 385
7 58 59 386 387 388 389 390
7 59 60 391 392 393 394 395
7 60 61 396 397 398 399 400
7 61 62 401 402 403 404 405
7 62 63 406 407 408 409 410
7 63 64 411 412 413 414 415
7 64 65 416 417 418 419 420
7 65 66 421 422 423 424 425
7 66 67 426 427 428 429 430
7 67 68 431 432 433 434 435
7 68 69 436 437 438 439 440
7 69 70 441 442 443 444 445
7 70 71 446 447 448 449 450
7 71 72 451 452 453 454 455
7 72 73 456 457 458 459 460
7 73 74 461 462 463 464 465
7 74 75 466 467 468 469 470
7 75 76 471 472 473 474 475
7 76 77 476 477 478 479 480
7 77 78 481 482 483 484 485
7 78 79 486 487 488 489 490
7 79 80 491 492 493 494 495
7 80 81 496 497 498 499 500
7 81 82 501 502 503 504 505
7 82 83 506 507 508 509 510
7 83 84 511 512 513 514 515
7 84 85 516 517 518 519 520
7 85 86 521 522 523 524 525
7 86 87 526 527 528 529 530
7 87 88 531 532 533 534 535
7 88 89 536 537 538 539 540
7 89 90 541 542 543 544 545
7 90 91 546 547 548 549 550
7 91 92 551 552 553 554 555
7 92 93 556 557 558 559 560
7 93 94 561 562 563 564 565
7 94 95 566 567 568 569 570
7 95 96 571 572 573 574 575
7 96 97 576 577 578 579 580
7 97 98 581 582 583 584 585
7 98 99 586 587 588 589 590
7 99 100 591 592 593 594 595
7 100 1 596 597 598 599 600

CELL_TYPES 100
3
3
3
3
3
3
3
3
3
3
3
3
3
3
3
3
3
3
3
3
3
3
3
3
3
3
3
3
3
3
3
3
3
3
3
3
3
3
3
3
3
3
3
3
3
3
3
3
3
3
3
3
3
3
3
3
3
3
3
3
3
3
3
3
3
3
3
3
3
3
3
3
3
3
3
3
3
3
3
3
3
3
3
3
3
3
3
3
3
3
3
3
3
3
3
3
3
3
3
3

CELL_DATA 100
SCALARS CellEntityIds int 1
LOOKUP_TABLE default
1
1
1
1
1
1
1
1
1
1
1
1
1
1
1
1
1
1
1
1
1
1
1
1
1
1
1
1
1
1
1
1
1
1
1
1
1
1
1
1
1
1
1
1
1
1
1
1
1
1
1
1
1
1
1
1
1
1
1
1
1
1
1
1
1
1
1
1
1
1
1
1
1
1
1
1
1
1
1
1
1
1
1
1
1
1
1
1
1
1
1
1
1
1
1
1
1
1
1
1
