# vtk DataFile Version 2.0
1D, Created by Gmsh 4.12.2 
ASCII
DATASET UNSTRUCTURED_GRID
POINTS 9 double
0 0 0
1 0 0
0.125 0 0
0.25 0 0
0.375 0 0
0.5 0 0
0.625 0 0
0.75 0 0
0.875 0 0

CELLS 1 10
9 0 1 2 3 4 5 6 7 8

CELL_TYPES 1
3

CELL_DATA 1
SCALARS CellEntityIds int 1
LOOKUP_TABLE default
1
