# vtk DataFile Version 2.0
1D, Created by Gmsh 4.12.2 
ASCII
DATASET UNSTRUCTURED_GRID
POINTS 901 double
0 0 0
1 0 0
0.009999999999981104 0 0
0.01999999999996237 0 0
0.02999999999994307 0 0
0.03999999999992186 0 0
0.04999999999989966 0 0
0.05999999999987837 0 0
0.06999999999986051 0 0
0.07999999999984518 0 0
0.0899999999998299 0 0
0.09999999999981463 0 0
0.1099999999997994 0 0
0.1199999999997832 0 0
0.1299999999997609 0 0
0.1399999999997328 0 0
0.1499999999997036 0 0
0.1599999999996745 0 0
0.1699999999996453 0 0
0.1799999999996162 0 0
0.189999999999587 0 0
0.1999999999995579 0 0
0.2099999999995288 0 0
0.2199999999994996 0 0
0.2299999999994704 0 0
0.2399999999994413 0 0
0.2499999999994121 0 0
0.259999999999383 0 0
0.2699999999993538 0 0
0.2799999999993247 0 0
0.2899999999992955 0 0
0.2999999999992664 0 0
0.3099999999992372 0 0
0.3199999999992081 0 0
0.329999999999179 0 0
0.3399999999991498 0 0
0.3499999999991207 0 0
0.3599999999990915 0 0
0.3699999999990624 0 0
0.3799999999990332 0 0
0.3899999999990041 0 0
0.3999999999989749 0 0
0.4099999999989458 0 0
0.4199999999989167 0 0
0.4299999999988875 0 0
0.4399999999988584 0 0
0.4499999999988292 0 0
0.4599999999988 0 0
0.4699999999987708 0 0
0.4799999999987418 0 0
0.4899999999987126 0 0
0.4999999999986943 0 0
0.5099999999987098 0 0
0.5199999999987361 0 0
0.5299999999987626 0 0
0.5399999999987888 0 0
0.5499999999988152 0 0
0.5599999999988415 0 0
0.5699999999988679 0 0
0.5799999999988942 0 0
0.5899999999989205 0 0
0.5999999999989468 0 0
0.6099999999989731 0 0
0.6199999999989995 0 0
0.6299999999990258 0 0
0.6399999999990521 0 0
0.6499999999990784 0 0
0.6599999999991049 0 0
0.6699999999991312 0 0
0.6799999999991574 0 0
0.6899999999991837 0 0
0.6999999999992101 0 0
0.7099999999992365 0 0
0.7199999999992628 0 0
0.7299999999992892 0 0
0.7399999999993154 0 0
0.7499999999993417 0 0
0.7599999999993681 0 0
0.7699999999993945 0 0
0.7799999999994207 0 0
0.789999999999447 0 0
0.7999999999994734 0 0
0.8099999999994998 0 0
0.8199999999995261 0 0
0.8299999999995523 0 0
0.8399999999995788 0 0
0.8499999999996051 0 0
0.8599999999996314 0 0
0.8699999999996577 0 0
0.8799999999996841 0 0
0.8899999999997104 0 0
0.8999999999997367 0 0
0.9099999999997631 0 0
0.9199999999997894 0 0
0.9299999999998156 0 0
0.939999999999842 0 0
0.9499999999998684 0 0
0.9599999999998947 0 0
0.969999999999921 0 0
0.9799999999999475 0 0
0.9899999999999737 0 0
0.001111111111108983 0 0
0.002222222222217965 0 0
0.003333333333326947 0 0
0.004444444444435953 0 0
0.005555555555544983 0 0
0.006666666666654013 0 0
0.007777777777763044 0 0
0.008888888888872074 0 0
0.01111111111109013 0 0
0.01222222222219916 0 0
0.01333333333330819 0 0
0.01444444444441722 0 0
0.01555555555552625 0 0
0.01666666666663528 0 0
0.01777777777774431 0 0
0.01888888888885334 0 0
0.02111111111107133 0 0
0.0222222222221803 0 0
0.02333333333328927 0 0
0.02444444444439824 0 0
0.0255555555555072 0 0
0.02666666666661617 0 0
0.02777777777772514 0 0
0.0288888888888341 0 0
0.03111111111105216 0 0
0.0322222222221609 0 0
0.03333333333326961 0 0
0.03444444444437832 0 0
0.03555555555548702 0 0
0.03666666666659572 0 0
0.03777777777770443 0 0
0.03888888888881314 0 0
0.0411111111110305 0 0
0.04222222222213914 0 0
0.04333333333324779 0 0
0.04444444444435643 0 0
0.04555555555546507 0 0
0.04666666666657371 0 0
0.04777777777768235 0 0
0.04888888888879099 0 0
0.0511111111110084 0 0
0.05222222222211715 0 0
0.05333333333322589 0 0
0.05444444444433464 0 0
0.05555555555544339 0 0
0.05666666666655213 0 0
0.05777777777766088 0 0
0.05888888888876962 0 0
0.06111111111098691 0 0
0.06222222222209545 0 0
0.06333333333320459 0 0
0.06444444444431391 0 0
0.06555555555542322 0 0
0.06666666666653254 0 0
0.06777777777764184 0 0
0.06888888888875115 0 0
0.07111111111096992 0 0
0.07222222222207933 0 0
0.07333333333318874 0 0
0.07444444444429815 0 0
0.07555555555540756 0 0
0.07666666666651697 0 0
0.07777777777762639 0 0
0.0788888888887358 0 0
0.08111111111095459 0 0
0.082222222222064 0 0
0.08333333333317341 0 0
0.08444444444428283 0 0
0.08555555555539224 0 0
0.08666666666650165 0 0
0.08777777777761106 0 0
0.08888888888872047 0 0
0.09111111111093931 0 0
0.09222222222204872 0 0
0.09333333333315813 0 0
0.09444444444426754 0 0
0.09555555555537695 0 0
0.09666666666648636 0 0
0.09777777777759578 0 0
0.09888888888870519 0 0
0.1011111111109241 0 0
0.1022222222220335 0 0
0.1033333333331429 0 0
0.1044444444442523 0 0
0.1055555555553618 0 0
0.1066666666664712 0 0
0.1077777777775806 0 0
0.10888888888869 0 0
0.1111111111109087 0 0
0.112222222222018 0 0
0.1133333333331273 0 0
0.1144444444442366 0 0
0.1155555555553459 0 0
0.1166666666664552 0 0
0.1177777777775645 0 0
0.1188888888886738 0 0
0.1211111111108926 0 0
0.122222222222002 0 0
0.1233333333331114 0 0
0.1244444444442208 0 0
0.1255555555553295 0 0
0.1266666666664374 0 0
0.1277777777775452 0 0
0.1288888888886531 0 0
0.1311111111108689 0 0
0.1322222222219769 0 0
0.1333333333330849 0 0
0.1344444444441929 0 0
0.1355555555553009 0 0
0.1366666666664088 0 0
0.1377777777775168 0 0
0.1388888888886248 0 0
0.1411111111108407 0 0
0.1422222222219485 0 0
0.1433333333330564 0 0
0.1444444444441643 0 0
0.1455555555552721 0 0
0.14666666666638 0 0
0.1477777777774879 0 0
0.1488888888885957 0 0
0.1511111111108115 0 0
0.1522222222219194 0 0
0.1533333333330272 0 0
0.1544444444441351 0 0
0.155555555555243 0 0
0.1566666666663508 0 0
0.1577777777774587 0 0
0.1588888888885666 0 0
0.1611111111107824 0 0
0.1622222222218902 0 0
0.1633333333329981 0 0
0.164444444444106 0 0
0.1655555555552138 0 0
0.1666666666663217 0 0
0.1677777777774296 0 0
0.1688888888885375 0 0
0.1711111111107532 0 0
0.1722222222218611 0 0
0.1733333333329689 0 0
0.1744444444440768 0 0
0.1755555555551847 0 0
0.1766666666662925 0 0
0.1777777777774004 0 0
0.1788888888885083 0 0
0.181111111110724 0 0
0.1822222222218319 0 0
0.1833333333329398 0 0
0.1844444444440476 0 0
0.1855555555551555 0 0
0.1866666666662634 0 0
0.1877777777773713 0 0
0.1888888888884791 0 0
0.1911111111106949 0 0
0.1922222222218028 0 0
0.1933333333329106 0 0
0.1944444444440185 0 0
0.1955555555551264 0 0
0.1966666666662343 0 0
0.1977777777773421 0 0
0.19888888888845 0 0
0.2011111111106657 0 0
0.2022222222217736 0 0
0.2033333333328815 0 0
0.2044444444439893 0 0
0.2055555555550972 0 0
0.2066666666662051 0 0
0.207777777777313 0 0
0.2088888888884208 0 0
0.2111111111106366 0 0
0.2122222222217445 0 0
0.2133333333328524 0 0
0.2144444444439602 0 0
0.2155555555550681 0 0
0.216666666666176 0 0
0.2177777777772839 0 0
0.2188888888883917 0 0
0.2211111111106075 0 0
0.2222222222217153 0 0
0.2233333333328232 0 0
0.2244444444439311 0 0
0.225555555555039 0 0
0.2266666666661468 0 0
0.2277777777772547 0 0
0.2288888888883626 0 0
0.2311111111105783 0 0
0.2322222222216862 0 0
0.233333333332794 0 0
0.2344444444439019 0 0
0.2355555555550098 0 0
0.2366666666661177 0 0
0.2377777777772255 0 0
0.2388888888883334 0 0
0.2411111111105492 0 0
0.242222222221657 0 0
0.2433333333327649 0 0
0.2444444444438728 0 0
0.2455555555549807 0 0
0.2466666666660885 0 0
0.2477777777771964 0 0
0.2488888888883043 0 0
0.25111111111052 0 0
0.2522222222216279 0 0
0.2533333333327358 0 0
0.2544444444438437 0 0
0.2555555555549516 0 0
0.2566666666660595 0 0
0.2577777777771674 0 0
0.2588888888882753 0 0
0.2611111111104908 0 0
0.2622222222215987 0 0
0.2633333333327065 0 0
0.2644444444438144 0 0
0.2655555555549222 0 0
0.2666666666660301 0 0
0.2677777777771379 0 0
0.2688888888882457 0 0
0.2711111111104617 0 0
0.2722222222215696 0 0
0.2733333333326775 0 0
0.2744444444437854 0 0
0.2755555555548933 0 0
0.2766666666660012 0 0
0.2777777777771091 0 0
0.278888888888217 0 0
0.2811111111104326 0 0
0.2822222222215404 0 0
0.2833333333326483 0 0
0.2844444444437561 0 0
0.2855555555548639 0 0
0.2866666666659718 0 0
0.2877777777770796 0 0
0.2888888888881875 0 0
0.2911111111104034 0 0
0.2922222222215113 0 0
0.2933333333326192 0 0
0.2944444444437271 0 0
0.295555555554835 0 0
0.2966666666659429 0 0
0.2977777777770508 0 0
0.2988888888881587 0 0
0.3011111111103743 0 0
0.3022222222214821 0 0
0.3033333333325899 0 0
0.3044444444436978 0 0
0.3055555555548056 0 0
0.3066666666659135 0 0
0.3077777777770213 0 0
0.3088888888881292 0 0
0.3111111111103451 0 0
0.312222222221453 0 0
0.3133333333325609 0 0
0.3144444444436688 0 0
0.3155555555547767 0 0
0.3166666666658846 0 0
0.3177777777769925 0 0
0.3188888888881004 0 0
0.321111111110316 0 0
0.3222222222214239 0 0
0.3233333333325318 0 0
0.3244444444436397 0 0
0.3255555555547476 0 0
0.3266666666658555 0 0
0.3277777777769634 0 0
0.3288888888880713 0 0
0.3311111111102868 0 0
0.3322222222213947 0 0
0.3333333333325025 0 0
0.3344444444436104 0 0
0.3355555555547182 0 0
0.3366666666658261 0 0
0.3377777777769339 0 0
0.3388888888880418 0 0
0.3411111111102577 0 0
0.3422222222213656 0 0
0.3433333333324735 0 0
0.3444444444435814 0 0
0.3455555555546893 0 0
0.3466666666657972 0 0
0.3477777777769051 0 0
0.348888888888013 0 0
0.3511111111102285 0 0
0.3522222222213364 0 0
0.3533333333324442 0 0
0.3544444444435521 0 0
0.3555555555546599 0 0
0.3566666666657677 0 0
0.3577777777768756 0 0
0.3588888888879834 0 0
0.3611111111101994 0 0
0.3622222222213073 0 0
0.3633333333324152 0 0
0.3644444444435231 0 0
0.365555555554631 0 0
0.3666666666657389 0 0
0.3677777777768468 0 0
0.3688888888879547 0 0
0.3711111111101703 0 0
0.3722222222212781 0 0
0.3733333333323859 0 0
0.3744444444434938 0 0
0.3755555555546016 0 0
0.3766666666657095 0 0
0.3777777777768173 0 0
0.3788888888879252 0 0
0.3811111111101411 0 0
0.382222222221249 0 0
0.3833333333323569 0 0
0.3844444444434648 0 0
0.3855555555545727 0 0
0.3866666666656806 0 0
0.3877777777767885 0 0
0.3888888888878964 0 0
0.3911111111101119 0 0
0.3922222222212198 0 0
0.3933333333323276 0 0
0.3944444444434355 0 0
0.3955555555545433 0 0
0.3966666666656511 0 0
0.397777777776759 0 0
0.3988888888878668 0 0
0.4011111111100828 0 0
0.4022222222211907 0 0
0.4033333333322986 0 0
0.4044444444434065 0 0
0.4055555555545144 0 0
0.4066666666656223 0 0
0.4077777777767302 0 0
0.4088888888878381 0 0
0.4111111111100537 0 0
0.4122222222211616 0 0
0.4133333333322695 0 0
0.4144444444433774 0 0
0.4155555555544853 0 0
0.4166666666655932 0 0
0.4177777777767011 0 0
0.418888888887809 0 0
0.4211111111100245 0 0
0.4222222222211324 0 0
0.4233333333322402 0 0
0.4244444444433481 0 0
0.4255555555544559 0 0
0.4266666666655637 0 0
0.4277777777766716 0 0
0.4288888888877794 0 0
0.4311111111099954 0 0
0.4322222222211033 0 0
0.4333333333322112 0 0
0.4344444444433191 0 0
0.435555555554427 0 0
0.4366666666655349 0 0
0.4377777777766428 0 0
0.4388888888877507 0 0
0.4411111111099662 0 0
0.442222222221074 0 0
0.4433333333321819 0 0
0.4444444444432897 0 0
0.4455555555543976 0 0
0.4466666666655054 0 0
0.4477777777766133 0 0
0.4488888888877211 0 0
0.4511111111099371 0 0
0.452222222221045 0 0
0.4533333333321529 0 0
0.4544444444432608 0 0
0.4555555555543687 0 0
0.4566666666654766 0 0
0.4577777777765845 0 0
0.4588888888876924 0 0
0.4611111111099079 0 0
0.4622222222210157 0 0
0.4633333333321236 0 0
0.4644444444432314 0 0
0.4655555555543393 0 0
0.4666666666654471 0 0
0.4677777777765549 0 0
0.4688888888876628 0 0
0.4711111111098787 0 0
0.4722222222209866 0 0
0.4733333333320945 0 0
0.4744444444432024 0 0
0.4755555555543103 0 0
0.4766666666654182 0 0
0.4777777777765261 0 0
0.478888888887634 0 0
0.4811111111098497 0 0
0.4822222222209576 0 0
0.4833333333320655 0 0
0.4844444444431734 0 0
0.4855555555542813 0 0
0.4866666666653892 0 0
0.4877777777764971 0 0
0.488888888887605 0 0
0.4911111111098217 0 0
0.4922222222209308 0 0
0.4933333333320398 0 0
0.4944444444431489 0 0
0.495555555554258 0 0
0.496666666665367 0 0
0.4977777777764761 0 0
0.4988888888875851 0 0
0.5011111111098071 0 0
0.5022222222209199 0 0
0.5033333333320328 0 0
0.5044444444431456 0 0
0.5055555555542585 0 0
0.5066666666653713 0 0
0.5077777777764841 0 0
0.508888888887597 0 0
0.5111111111098239 0 0
0.5122222222209379 0 0
0.513333333332052 0 0
0.5144444444431661 0 0
0.5155555555542801 0 0
0.5166666666653942 0 0
0.5177777777765082 0 0
0.5188888888876223 0 0
0.5211111111098502 0 0
0.5222222222209643 0 0
0.5233333333320783 0 0
0.5244444444431924 0 0
0.5255555555543064 0 0
0.5266666666654205 0 0
0.5277777777765346 0 0
0.5288888888876486 0 0
0.5311111111098766 0 0
0.5322222222209907 0 0
0.5333333333321048 0 0
0.5344444444432188 0 0
0.5355555555543329 0 0
0.5366666666654469 0 0
0.537777777776561 0 0
0.5388888888876751 0 0
0.5411111111099028 0 0
0.5422222222210169 0 0
0.543333333332131 0 0
0.544444444443245 0 0
0.5455555555543591 0 0
0.5466666666654731 0 0
0.5477777777765872 0 0
0.5488888888877013 0 0
0.5511111111099293 0 0
0.5522222222210433 0 0
0.5533333333321574 0 0
0.5544444444432715 0 0
0.5555555555543855 0 0
0.5566666666654996 0 0
0.5577777777766136 0 0
0.5588888888877277 0 0
0.5611111111099556 0 0
0.5622222222210697 0 0
0.5633333333321837 0 0
0.5644444444432978 0 0
0.5655555555544118 0 0
0.5666666666655259 0 0
0.56777777777664 0 0
0.568888888887754 0 0
0.5711111111099819 0 0
0.572222222221096 0 0
0.57333333333221 0 0
0.5744444444433241 0 0
0.5755555555544382 0 0
0.5766666666655522 0 0
0.5777777777766663 0 0
0.5788888888877803 0 0
0.5811111111100082 0 0
0.5822222222211223 0 0
0.5833333333322364 0 0
0.5844444444433504 0 0
0.5855555555544645 0 0
0.5866666666655785 0 0
0.5877777777766926 0 0
0.5888888888878067 0 0
0.5911111111100346 0 0
0.5922222222211486 0 0
0.5933333333322627 0 0
0.5944444444433767 0 0
0.5955555555544908 0 0
0.5966666666656049 0 0
0.5977777777767189 0 0
0.598888888887833 0 0
0.6011111111100609 0 0
0.6022222222211749 0 0
0.603333333332289 0 0
0.6044444444434031 0 0
0.6055555555545171 0 0
0.6066666666656312 0 0
0.6077777777767452 0 0
0.6088888888878593 0 0
0.6111111111100872 0 0
0.6122222222212013 0 0
0.6133333333323153 0 0
0.6144444444434294 0 0
0.6155555555545434 0 0
0.6166666666656575 0 0
0.6177777777767716 0 0
0.6188888888878856 0 0
0.6211111111101135 0 0
0.6222222222212276 0 0
0.6233333333323416 0 0
0.6244444444434557 0 0
0.6255555555545698 0 0
0.6266666666656838 0 0
0.6277777777767979 0 0
0.6288888888879119 0 0
0.6311111111101398 0 0
0.6322222222212539 0 0
0.633333333332368 0 0
0.634444444443482 0 0
0.6355555555545961 0 0
0.6366666666657101 0 0
0.6377777777768242 0 0
0.6388888888879383 0 0
0.6411111111101662 0 0
0.6422222222212802 0 0
0.6433333333323943 0 0
0.6444444444435083 0 0
0.6455555555546224 0 0
0.6466666666657365 0 0
0.6477777777768505 0 0
0.6488888888879646 0 0
0.6511111111101925 0 0
0.6522222222213065 0 0
0.6533333333324206 0 0
0.6544444444435347 0 0
0.6555555555546487 0 0
0.6566666666657628 0 0
0.6577777777768768 0 0
0.6588888888879909 0 0
0.6611111111102189 0 0
0.662222222221333 0 0
0.663333333332447 0 0
0.6644444444435611 0 0
0.6655555555546752 0 0
0.6666666666657892 0 0
0.6677777777769033 0 0
0.6688888888880173 0 0
0.6711111111102452 0 0
0.6722222222213593 0 0
0.6733333333324734 0 0
0.6744444444435874 0 0
0.6755555555547015 0 0
0.6766666666658155 0 0
0.6777777777769296 0 0
0.6788888888880437 0 0
0.6811111111102714 0 0
0.6822222222213855 0 0
0.6833333333324996 0 0
0.6844444444436136 0 0
0.6855555555547277 0 0
0.6866666666658418 0 0
0.6877777777769558 0 0
0.6888888888880699 0 0
0.6911111111102978 0 0
0.6922222222214118 0 0
0.6933333333325259 0 0
0.69444444444364 0 0
0.695555555554754 0 0
0.6966666666658681 0 0
0.6977777777769821 0 0
0.6988888888880962 0 0
0.7011111111103242 0 0
0.7022222222214383 0 0
0.7033333333325523 0 0
0.7044444444436664 0 0
0.7055555555547804 0 0
0.7066666666658945 0 0
0.7077777777770086 0 0
0.7088888888881226 0 0
0.7111111111103505 0 0
0.7122222222214646 0 0
0.7133333333325786 0 0
0.7144444444436927 0 0
0.7155555555548068 0 0
0.7166666666659208 0 0
0.7177777777770349 0 0
0.7188888888881489 0 0
0.7211111111103768 0 0
0.7222222222214909 0 0
0.723333333332605 0 0
0.724444444443719 0 0
0.7255555555548331 0 0
0.7266666666659471 0 0
0.7277777777770612 0 0
0.7288888888881753 0 0
0.7311111111104033 0 0
0.7322222222215173 0 0
0.7333333333326314 0 0
0.7344444444437455 0 0
0.7355555555548595 0 0
0.7366666666659736 0 0
0.7377777777770876 0 0
0.7388888888882017 0 0
0.7411111111104295 0 0
0.7422222222215435 0 0
0.7433333333326576 0 0
0.7444444444437717 0 0
0.7455555555548857 0 0
0.7466666666659998 0 0
0.7477777777771139 0 0
0.7488888888882279 0 0
0.7511111111104558 0 0
0.7522222222215699 0 0
0.7533333333326839 0 0
0.754444444443798 0 0
0.7555555555549121 0 0
0.7566666666660261 0 0
0.7577777777771402 0 0
0.7588888888882542 0 0
0.7611111111104821 0 0
0.7622222222215962 0 0
0.7633333333327103 0 0
0.7644444444438243 0 0
0.7655555555549384 0 0
0.7666666666660524 0 0
0.7677777777771665 0 0
0.7688888888882806 0 0
0.7711111111105086 0 0
0.7722222222216226 0 0
0.7733333333327367 0 0
0.7744444444438507 0 0
0.7755555555549648 0 0
0.7766666666660789 0 0
0.7777777777771929 0 0
0.778888888888307 0 0
0.7811111111105348 0 0
0.7822222222216488 0 0
0.7833333333327629 0 0
0.784444444443877 0 0
0.785555555554991 0 0
0.7866666666661051 0 0
0.7877777777772191 0 0
0.7888888888883332 0 0
0.7911111111105611 0 0
0.7922222222216752 0 0
0.7933333333327892 0 0
0.7944444444439033 0 0
0.7955555555550173 0 0
0.7966666666661314 0 0
0.7977777777772455 0 0
0.7988888888883595 0 0
0.8011111111105874 0 0
0.8022222222217015 0 0
0.8033333333328155 0 0
0.8044444444439296 0 0
0.8055555555550437 0 0
0.8066666666661577 0 0
0.8077777777772718 0 0
0.8088888888883858 0 0
0.8111111111106138 0 0
0.8122222222217279 0 0
0.813333333332842 0 0
0.814444444443956 0 0
0.8155555555550701 0 0
0.8166666666661841 0 0
0.8177777777772982 0 0
0.8188888888884123 0 0
0.8211111111106402 0 0
0.8222222222217542 0 0
0.8233333333328683 0 0
0.8244444444439823 0 0
0.8255555555550964 0 0
0.8266666666662105 0 0
0.8277777777773245 0 0
0.8288888888884386 0 0
0.8311111111106664 0 0
0.8322222222217804 0 0
0.8333333333328945 0 0
0.8344444444440086 0 0
0.8355555555551226 0 0
0.8366666666662367 0 0
0.8377777777773507 0 0
0.8388888888884648 0 0
0.8411111111106928 0 0
0.8422222222218069 0 0
0.8433333333329209 0 0
0.844444444444035 0 0
0.8455555555551491 0 0
0.8466666666662631 0 0
0.8477777777773772 0 0
0.8488888888884912 0 0
0.8511111111107191 0 0
0.8522222222218332 0 0
0.8533333333329473 0 0
0.8544444444440613 0 0
0.8555555555551754 0 0
0.8566666666662894 0 0
0.8577777777774035 0 0
0.8588888888885176 0 0
0.8611111111107455 0 0
0.8622222222218595 0 0
0.8633333333329736 0 0
0.8644444444440876 0 0
0.8655555555552017 0 0
0.8666666666663158 0 0
0.8677777777774298 0 0
0.8688888888885439 0 0
0.8711111111107718 0 0
0.8722222222218858 0 0
0.8733333333329999 0 0
0.874444444444114 0 0
0.875555555555228 0 0
0.8766666666663421 0 0
0.8777777777774561 0 0
0.8788888888885702 0 0
0.8811111111107982 0 0
0.8822222222219123 0 0
0.8833333333330263 0 0
0.8844444444441404 0 0
0.8855555555552544 0 0
0.8866666666663685 0 0
0.8877777777774826 0 0
0.8888888888885966 0 0
0.8911111111108244 0 0
0.8922222222219385 0 0
0.8933333333330525 0 0
0.8944444444441666 0 0
0.8955555555552807 0 0
0.8966666666663947 0 0
0.8977777777775088 0 0
0.8988888888886228 0 0
0.9011111111108507 0 0
0.9022222222219648 0 0
0.9033333333330789 0 0
0.9044444444441929 0 0
0.905555555555307 0 0
0.906666666666421 0 0
0.9077777777775351 0 0
0.9088888888886492 0 0
0.9111111111108772 0 0
0.9122222222219912 0 0
0.9133333333331053 0 0
0.9144444444442194 0 0
0.9155555555553334 0 0
0.9166666666664475 0 0
0.9177777777775615 0 0
0.9188888888886756 0 0
0.9211111111109035 0 0
0.9222222222220176 0 0
0.9233333333331316 0 0
0.9244444444442457 0 0
0.9255555555553597 0 0
0.9266666666664738 0 0
0.9277777777775879 0 0
0.9288888888887019 0 0
0.9311111111109297 0 0
0.9322222222220438 0 0
0.9333333333331578 0 0
0.9344444444442719 0 0
0.9355555555553859 0 0
0.9366666666665 0 0
0.9377777777776141 0 0
0.9388888888887281 0 0
0.941111111110956 0 0
0.9422222222220701 0 0
0.9433333333331841 0 0
0.9444444444442982 0 0
0.9455555555554123 0 0
0.9466666666665263 0 0
0.9477777777776404 0 0
0.9488888888887544 0 0
0.9511111111109825 0 0
0.9522222222220965 0 0
0.9533333333332106 0 0
0.9544444444443246 0 0
0.9555555555554387 0 0
0.9566666666665528 0 0
0.9577777777776668 0 0
0.9588888888887809 0 0
0.9611111111110088 0 0
0.9622222222221228 0 0
0.9633333333332369 0 0
0.964444444444351 0 0
0.965555555555465 0 0
0.9666666666665791 0 0
0.9677777777776931 0 0
0.9688888888888072 0 0
0.9711111111110351 0 0
0.9722222222221492 0 0
0.9733333333332632 0 0
0.9744444444443773 0 0
0.9755555555554913 0 0
0.9766666666666054 0 0
0.9777777777777195 0 0
0.9788888888888335 0 0
0.9811111111110615 0 0
0.9822222222221756 0 0
0.9833333333332896 0 0
0.9844444444444037 0 0
0.9855555555555178 0 0
0.9866666666666318 0 0
0.9877777777777459 0 0
0.98888888888886 0 0
0.9911111111110877 0 0
0.9922222222222018 0 0
0.9933333333333159 0 0
0.9944444444444299 0 0
0.995555555555544 0 0
0.996666666666658 0 0
0.9977777777777721 0 0
0.9988888888888862 0 0

CELLS 100 1100
10 0 2 101 102 103 104 105 106 107 108
10 2 3 109 110 111 112 113 114 115 116
10 3 4 117 118 119 120 121 122 123 124
10 4 5 125 126 127 128 129 130 131 132
10 5 6 133 134 135 136 137 138 139 140
10 6 7 141 142 143 144 145 146 147 148
10 7 8 149 150 151 152 153 154 155 156
10 8 9 157 158 159 160 161 162 163 164
10 9 10 165 166 167 168 169 170 171 172
10 10 11 173 174 175 176 177 178 179 180
10 11 12 181 182 183 184 185 186 187 188
10 12 13 189 190 191 192 193 194 195 196
10 13 14 197 198 199 200 201 202 203 204
10 14 15 205 206 207 208 209 210 211 212
10 15 16 213 214 215 216 217 218 219 220
10 16 17 221 222 223 224 225 226 227 228
10 17 18 229 230 231 232 233 234 235 236
10 18 19 237 238 239 240 241 242 243 244
10 19 20 245 246 247 248 249 250 251 252
10 20 21 253 254 255 256 257 258 259 260
10 21 22 261 262 263 264 265 266 267 268
10 22 23 269 270 271 272 273 274 275 276
10 23 24 277 278 279 280 281 282 283 284
10 24 25 285 286 287 288 289 290 291 292
10 25 26 293 294 295 296 297 298 299 300
10 26 27 301 302 303 304 305 306 307 308
10 27 28 309 310 311 312 313 314 315 316
10 28 29 317 318 319 320 321 322 323 324
10 29 30 325 326 327 328 329 330 331 332
10 30 31 333 334 335 336 337 338 339 340
10 31 32 341 342 343 344 345 346 347 348
10 32 33 349 350 351 352 353 354 355 356
10 33 34 357 358 359 360 361 362 363 364
10 34 35 365 366 367 368 369 370 371 372
10 35 36 373 374 375 376 377 378 379 380
10 36 37 381 382 383 384 385 386 387 388
10 37 38 389 390 391 392 393 394 395 396
10 38 39 397 398 399 400 401 402 403 404
10 39 40 405 406 407 408 409 410 411 412
10 40 41 413 414 415 416 417 418 419 420
10 41 42 421 422 423 424 425 426 427 428
10 42 43 429 430 431 432 433 434 435 436
10 43 44 437 438 439 440 441 442 443 444
10 44 45 445 446 447 448 449 450 451 452
10 45 46 453 454 455 456 457 458 459 460
10 46 47 461 462 463 464 465 466 467 468
10 47 48 469 470 471 472 473 474 475 476
10 48 49 477 478 479 480 481 482 483 484
10 49 50 485 486 487 488 489 490 491 492
10 50 51 493 494 495 496 497 498 499 500
10 51 52 501 502 503 504 505 506 507 508
10 52 53 509 510 511 512 513 514 515 516
10 53 54 517 518 519 520 521 522 523 524
10 54 55 525 526 527 528 529 530 531 532
10 55 56 533 534 535 536 537 538 539 540
10 56 57 541 542 543 544 545 546 547 548
10 57 58 549 550 551 552 553 554 555 556
10 58 59 557 558 559 560 561 562 563 564
10 59 60 565 566 567 568 569 570 571 572
10 60 61 573 574 575 576 577 578 579 580
10 61 62 581 582 583 584 585 586 587 588
10 62 63 589 590 591 592 593 594 595 596
10 63 64 597 598 599 600 601 602 603 604
10 64 65 605 606 607 608 609 610 611 612
10 65 66 613 614 615 616 617 618 619 620
10 66 67 621 622 623 624 625 626 627 628
10 67 68 629 630 631 632 633 634 635 636
10 68 69 637 638 639 640 641 642 643 644
10 69 70 645 646 647 648 649 650 651 652
10 70 71 653 654 655 656 657 658 659 660
10 71 72 661 662 663 664 665 666 667 668
10 72 73 669 670 671 672 673 674 675 676
10 73 74 677 678 679 680 681 682 683 684
10 74 75 685 686 687 688 689 690 691 692
10 75 76 693 694 695 696 697 698 699 700
10 76 77 701 702 703 704 705 706 707 708
10 77 78 709 710 711 712 713 714 715 716
10 78 79 717 718 719 720 721 722 723 724
10 79 80 725 726 727 728 729 730 731 732
10 80 81 733 734 735 736 737 738 739 740
10 81 82 741 742 743 744 745 746 747 748
10 82 83 749 750 751 752 753 754 755 756
10 83 84 757 758 759 760 761 762 763 764
10 84 85 765 766 767 768 769 770 771 772
10 85 86 773 774 775 776 777 778 779 780
10 86 87 781 782 783 784 785 786 787 788
10 87 88 789 790 791 792 793 794 795 796
10 88 89 797 798 799 800 801 802 803 804
10 89 90 805 806 807 808 809 810 811 812
10 90 91 813 814 815 816 817 818 819 820
10 91 92 821 822 823 824 825 826 827 828
10 92 93 829 830 831 832 833 834 835 836
10 93 94 837 838 839 840 841 842 843 844
10 94 95 845 846 847 848 849 850 851 852
10 95 96 853 854 855 856 857 858 859 860
10 96 97 861 862 863 864 865 866 867 868
10 97 98 869 870 871 872 873 874 875 876
10 98 99 877 878 879 880 881 882 883 884
10 99 100 885 886 887 888 889 890 891 892
10 100 1 893 894 895 896 897 898 899 900

CELL_TYPES 100
3
3
3
3
3
3
3
3
3
3
3
3
3
3
3
3
3
3
3
3
3
3
3
3
3
3
3
3
3
3
3
3
3
3
3
3
3
3
3
3
3
3
3
3
3
3
3
3
3
3
3
3
3
3
3
3
3
3
3
3
3
3
3
3
3
3
3
3
3
3
3
3
3
3
3
3
3
3
3
3
3
3
3
3
3
3
3
3
3
3
3
3
3
3
3
3
3
3
3
3

CELL_DATA 100
SCALARS CellEntityIds int 1
LOOKUP_TABLE default
1
1
1
1
1
1
1
1
1
1
1
1
1
1
1
1
1
1
1
1
1
1
1
1
1
1
1
1
1
1
1
1
1
1
1
1
1
1
1
1
1
1
1
1
1
1
1
1
1
1
1
1
1
1
1
1
1
1
1
1
1
1
1
1
1
1
1
1
1
1
1
1
1
1
1
1
1
1
1
1
1
1
1
1
1
1
1
1
1
1
1
1
1
1
1
1
1
1
1
1
